/*--------------------------------*- C++ -*----------------------------------*\
  =========                 |
  \\      /  F ield         | OpenFOAM: The Open Source CFD Toolbox
   \\    /   O peration     | Website:  https://openfoam.org
    \\  /    A nd           | Version:  6
     \\/     M anipulation  |
\*---------------------------------------------------------------------------*/
FoamFile
{
    version     2.0;
    format      ascii;
    class       volScalarField;
    location    "5";
    object      p;
}
// * * * * * * * * * * * * * * * * * * * * * * * * * * * * * * * * * * * * * //

dimensions      [0 2 -2 0 0 0 0];

internalField   nonuniform List<scalar> 
130000
(
0.010893
0.0101298
0.00940596
0.00872176
0.00807041
0.00743624
0.00682247
0.00622159
0.0056446
0.00509389
0.00457566
0.00409413
0.00364461
0.00322744
0.0028382
0.00246812
0.00210843
0.00174705
0.00136455
0.000960124
0.0290758
0.027605
0.0261414
0.0247737
0.0233931
0.0220573
0.020733
0.0194522
0.018216
0.0170343
0.0159229
0.0148692
0.0138947
0.0129761
0.0121214
0.0113073
0.0105363
0.00976803
0.00901639
0.00827388
0.04245
0.0410964
0.0395713
0.0381367
0.0366412
0.0351465
0.0336276
0.0321193
0.0306356
0.029174
0.0277702
0.0263953
0.0250957
0.023819
0.0226308
0.0214539
0.0203598
0.0192631
0.0182442
0.0172391
0.0524912
0.0511123
0.0495335
0.0479931
0.0463491
0.0446381
0.0428843
0.0411082
0.0393623
0.0376183
0.0359469
0.0342829
0.0327161
0.0311618
0.0297098
0.0282698
0.0269369
0.0256001
0.024374
0.0231411
0.0622236
0.0607082
0.0590231
0.0573654
0.0555872
0.0536816
0.0517257
0.0497109
0.0477389
0.0457465
0.0438455
0.0419364
0.0401433
0.0383395
0.0366736
0.0349924
0.0334565
0.0318979
0.0304855
0.029031
0.0711437
0.0694709
0.0677096
0.0659864
0.0641385
0.0621086
0.0600241
0.05784
0.0557093
0.0535279
0.0514575
0.0493511
0.0473869
0.0453963
0.0435591
0.0417
0.0400062
0.0382759
0.0367162
0.0351002
0.0784932
0.0769226
0.0752009
0.0734807
0.0716266
0.0695303
0.0673825
0.0650887
0.062862
0.0605491
0.0583633
0.0561147
0.0540234
0.0518747
0.0499094
0.0478885
0.0460623
0.0441731
0.0424774
0.0406844
0.0852851
0.0836186
0.0818456
0.0800889
0.078222
0.0760786
0.0738955
0.0715351
0.0692552
0.0668595
0.0646067
0.0622601
0.0600908
0.0578435
0.0557888
0.0536659
0.0517505
0.0497515
0.0479617
0.0460525
0.0912167
0.0894067
0.0875343
0.0857416
0.0838644
0.0817017
0.07951
0.0771224
0.0748255
0.072391
0.0701076
0.0677094
0.0654945
0.0631722
0.0610631
0.0588518
0.0568685
0.0547733
0.0529014
0.0508673
0.0961218
0.094301
0.0924289
0.0906452
0.0888049
0.086659
0.0844962
0.0821166
0.0798379
0.0773988
0.0751218
0.0727026
0.070481
0.0681322
0.066
0.0637521
0.0617391
0.0595916
0.0576769
0.0555773
0.100487
0.0985587
0.0966536
0.0948912
0.0931041
0.0909952
0.0888824
0.0865332
0.0842966
0.08188
0.0796333
0.0772259
0.0750199
0.0726596
0.070532
0.0682561
0.0662304
0.0640426
0.0620957
0.0599241
0.104241
0.10233
0.100461
0.0987549
0.0970481
0.094994
0.0929462
0.0906443
0.0884671
0.0860927
0.0839003
0.0815247
0.0793644
0.077033
0.0749366
0.0726794
0.0706773
0.068491
0.0665521
0.0643668
0.107765
0.105712
0.103818
0.102178
0.100563
0.0985935
0.096632
0.0944056
0.0923089
0.0900044
0.0878863
0.0855746
0.0834787
0.0811914
0.0791511
0.0769231
0.0749604
0.0727905
0.0708709
0.068671
0.110311
0.108416
0.106677
0.105228
0.103789
0.101971
0.100143
0.0980318
0.0960472
0.0938417
0.0918268
0.0896017
0.0876011
0.0853975
0.08344
0.081286
0.079399
0.077287
0.075428
0.0732718
0.112273
0.110638
0.109142
0.107939
0.106731
0.105101
0.103444
0.10148
0.0996368
0.0975597
0.0956704
0.0935642
0.0916777
0.0895753
0.0877231
0.0856571
0.0838613
0.0818265
0.0800392
0.0779338
0.114137
0.11274
0.111489
0.110559
0.109602
0.108193
0.106733
0.104945
0.103267
0.101345
0.0996065
0.0976407
0.0958954
0.093929
0.0922066
0.0902684
0.0885965
0.0866751
0.0849974
0.0829945
0.115797
0.114705
0.113716
0.113078
0.112386
0.111219
0.10997
0.10838
0.106883
0.105139
0.103564
0.101767
0.100173
0.0983593
0.0967813
0.0949848
0.0934451
0.0916573
0.0900955
0.0882066
0.117953
0.116963
0.116129
0.115751
0.1153
0.114374
0.113331
0.111948
0.110634
0.109078
0.107677
0.106055
0.104629
0.102987
0.101568
0.0999368
0.0985523
0.0969199
0.0955017
0.0937614
0.119902
0.119174
0.118576
0.118471
0.118267
0.117575
0.116736
0.115557
0.114426
0.113064
0.111836
0.110405
0.109144
0.107683
0.106423
0.104967
0.103735
0.102273
0.100995
0.0994132
0.122305
0.121708
0.121277
0.121396
0.121406
0.120923
0.120269
0.119283
0.118327
0.117154
0.116099
0.114851
0.113759
0.112481
0.111386
0.110108
0.109038
0.107747
0.106619
0.105204
0.124815
0.124329
0.124044
0.124368
0.124575
0.124293
0.123813
0.123017
0.122227
0.121242
0.120347
0.119287
0.118349
0.117254
0.116309
0.115212
0.114288
0.113175
0.112182
0.110939
0.127581
0.127132
0.126916
0.127432
0.127808
0.12772
0.127398
0.126781
0.12614
0.125327
0.124578
0.123685
0.122892
0.121962
0.121159
0.120224
0.119441
0.118485
0.117622
0.116531
0.130283
0.129948
0.129833
0.130528
0.131055
0.131142
0.130953
0.130497
0.129981
0.129326
0.128698
0.127964
0.127287
0.126515
0.125827
0.125052
0.12438
0.123583
0.122823
0.12189
0.133155
0.132885
0.132832
0.13367
0.134317
0.134544
0.134461
0.134136
0.133718
0.133193
0.132663
0.132055
0.131478
0.130829
0.130239
0.129586
0.129013
0.128333
0.127658
0.126835
0.13618
0.135869
0.135831
0.13677
0.137508
0.137852
0.137849
0.137635
0.137292
0.136877
0.136419
0.135925
0.135414
0.13488
0.134356
0.133821
0.133311
0.13275
0.132128
0.131424
0.139122
0.138814
0.138758
0.139796
0.140598
0.141036
0.141087
0.140954
0.140661
0.140323
0.139914
0.139493
0.139033
0.138571
0.138095
0.137629
0.137167
0.13667
0.136081
0.135432
0.142208
0.141821
0.141732
0.142808
0.143642
0.144128
0.144202
0.144117
0.143844
0.143557
0.143168
0.142804
0.14236
0.141957
0.141496
0.141094
0.140643
0.140213
0.139625
0.139039
0.145108
0.144714
0.144612
0.14572
0.146576
0.147083
0.14716
0.147087
0.146813
0.14654
0.14615
0.145801
0.145357
0.14497
0.144508
0.144122
0.14367
0.14325
0.142648
0.142062
0.148214
0.147677
0.147509
0.148597
0.149445
0.149938
0.149995
0.149908
0.149611
0.14933
0.148916
0.148564
0.148093
0.147707
0.147218
0.146836
0.146354
0.145942
0.145299
0.144713
0.151129
0.150515
0.150288
0.151367
0.152202
0.152672
0.152695
0.152574
0.152237
0.151923
0.15147
0.151085
0.150577
0.15016
0.149632
0.14922
0.1487
0.148251
0.147557
0.146924
0.154111
0.153365
0.153057
0.154103
0.154906
0.155337
0.15531
0.155139
0.154747
0.154386
0.153876
0.153449
0.152882
0.152421
0.151835
0.151381
0.150797
0.150307
0.149539
0.148854
0.157061
0.156213
0.155823
0.156838
0.157605
0.157985
0.157898
0.157664
0.157205
0.156779
0.156205
0.155711
0.155081
0.154557
0.153904
0.153387
0.152738
0.152178
0.151334
0.150568
0.160132
0.159134
0.158649
0.159608
0.160325
0.16064
0.160484
0.160174
0.159641
0.159142
0.158491
0.157928
0.157219
0.156622
0.15589
0.1553
0.154568
0.153935
0.152996
0.152142
0.163238
0.162113
0.161537
0.16245
0.16312
0.16337
0.163143
0.162754
0.162142
0.16156
0.160831
0.160183
0.159396
0.158718
0.157905
0.157233
0.156422
0.1557
0.154671
0.153718
0.166481
0.165205
0.164534
0.165387
0.166007
0.166185
0.165885
0.165411
0.164718
0.164049
0.163236
0.162504
0.16163
0.160864
0.159964
0.159204
0.158299
0.157489
0.156355
0.155295
0.16986
0.168458
0.167694
0.168498
0.169069
0.169177
0.168803
0.168241
0.167465
0.166705
0.165808
0.164983
0.164026
0.163171
0.162185
0.161335
0.160345
0.159436
0.158207
0.157039
0.173461
0.171896
0.171036
0.171774
0.172294
0.172323
0.171875
0.171223
0.170365
0.169515
0.168533
0.16762
0.166573
0.165625
0.164549
0.163604
0.162517
0.161514
0.160177
0.158896
0.177191
0.175498
0.174552
0.175245
0.175723
0.175685
0.175168
0.174431
0.173495
0.172555
0.171492
0.170486
0.169358
0.168319
0.167158
0.166121
0.16495
0.163848
0.162416
0.161025
0.181134
0.179291
0.178258
0.178898
0.179336
0.179231
0.178648
0.177828
0.176817
0.175791
0.174648
0.173558
0.172345
0.171215
0.169968
0.168839
0.167574
0.166378
0.16484
0.163336
0.185257
0.183293
0.18218
0.182784
0.183188
0.183024
0.182381
0.181484
0.180402
0.179294
0.178078
0.1769
0.175612
0.174398
0.17307
0.171854
0.170509
0.169217
0.167588
0.165975
0.189603
0.18749
0.186299
0.186858
0.187232
0.187008
0.18631
0.18534
0.184194
0.18301
0.181725
0.180471
0.179108
0.177809
0.176403
0.175099
0.173666
0.172282
0.170553
0.168828
0.19406
0.191838
0.190585
0.191127
0.191488
0.191224
0.190483
0.189452
0.188251
0.186998
0.185655
0.184325
0.182899
0.181525
0.180049
0.178664
0.177158
0.175685
0.17387
0.17204
0.198676
0.196334
0.195031
0.195558
0.195916
0.195618
0.194846
0.193762
0.192517
0.191206
0.189809
0.188417
0.18693
0.185482
0.183938
0.182474
0.180888
0.179329
0.17742
0.17548
0.203423
0.201
0.199664
0.200202
0.200574
0.200259
0.199467
0.198342
0.197062
0.195699
0.194261
0.192808
0.191272
0.189761
0.188158
0.186624
0.184974
0.18333
0.181341
0.179301
0.208346
0.205824
0.204471
0.205021
0.205419
0.205094
0.204293
0.203136
0.201831
0.200428
0.198953
0.197454
0.19587
0.194299
0.192639
0.191034
0.189314
0.187591
0.185512
0.183364
0.213383
0.210805
0.209454
0.210052
0.210498
0.210187
0.209392
0.208218
0.206899
0.205464
0.203966
0.202423
0.200805
0.199184
0.197477
0.195811
0.194034
0.192234
0.190081
0.187835
0.218592
0.215957
0.214624
0.215278
0.215786
0.215498
0.214722
0.213542
0.21222
0.210765
0.209248
0.207676
0.206025
0.204357
0.202604
0.200878
0.199037
0.197163
0.194924
0.192573
0.22401
0.221344
0.220038
0.220776
0.221361
0.221117
0.22037
0.219197
0.217881
0.216415
0.214892
0.213292
0.211621
0.209916
0.208127
0.206349
0.204459
0.202513
0.200202
0.197754
0.229629
0.226935
0.22568
0.226511
0.227188
0.226998
0.226294
0.225139
0.223839
0.222375
0.22085
0.219239
0.217548
0.21581
0.213985
0.212156
0.210207
0.208194
0.205799
0.203247
0.235469
0.232775
0.231586
0.232547
0.233338
0.233227
0.232581
0.231461
0.23019
0.228738
0.227224
0.225603
0.223908
0.222146
0.220294
0.218422
0.21643
0.214347
0.211882
0.209232
0.241549
0.23887
0.237774
0.238877
0.239799
0.239782
0.239207
0.238136
0.236904
0.235477
0.23398
0.232368
0.230665
0.228885
0.227005
0.225092
0.223044
0.220899
0.218348
0.215593
0.247977
0.245333
0.244336
0.245608
0.246679
0.246774
0.246285
0.245276
0.244095
0.242702
0.241234
0.239629
0.237935
0.236143
0.234244
0.232295
0.230206
0.227993
0.225369
0.222511
0.254763
0.252154
0.251284
0.252736
0.253973
0.254194
0.253803
0.252868
0.251748
0.250402
0.248967
0.247387
0.245697
0.243898
0.241977
0.239992
0.237849
0.235573
0.232859
0.229891
0.261979
0.259434
0.258703
0.260369
0.261792
0.26216
0.261881
0.261035
0.259985
0.258693
0.257302
0.255744
0.254072
0.25227
0.250335
0.248317
0.246131
0.243785
0.240989
0.23791
0.269693
0.267215
0.266644
0.268534
0.270158
0.270684
0.270527
0.269779
0.268809
0.267582
0.266236
0.264716
0.263056
0.261255
0.2593
0.257249
0.255005
0.252592
0.249697
0.246498
0.278011
0.275619
0.275214
0.277355
0.279194
0.279894
0.27987
0.27923
0.278345
0.277188
0.275897
0.27441
0.272774
0.270975
0.269006
0.26692
0.264627
0.262136
0.259148
0.255821
0.287002
0.284682
0.284461
0.286856
0.288921
0.289804
0.289921
0.289399
0.288607
0.28753
0.286294
0.284855
0.283235
0.281442
0.279452
0.277331
0.274971
0.272405
0.269301
0.26584
0.296693
0.294479
0.294454
0.297138
0.299449
0.300535
0.300805
0.300412
0.299721
0.298727
0.297557
0.296159
0.294567
0.292777
0.29077
0.288608
0.286189
0.283531
0.280316
0.276705
0.307218
0.30509
0.305277
0.308253
0.310823
0.31212
0.312553
0.312298
0.311715
0.310816
0.30971
0.308369
0.306795
0.305013
0.302978
0.300775
0.298275
0.29553
0.292177
0.288409
0.318603
0.316596
0.31701
0.320312
0.32316
0.324687
0.325295
0.325188
0.324719
0.323918
0.322884
0.321592
0.320046
0.318266
0.316208
0.313953
0.311378
0.30852
0.305032
0.301084
0.331007
0.329085
0.329742
0.333373
0.336514
0.338281
0.339073
0.339123
0.338777
0.338083
0.337121
0.335891
0.334363
0.33259
0.330494
0.328188
0.325513
0.322547
0.318893
0.314757
0.34439
0.342608
0.34353
0.347535
0.350993
0.353023
0.354013
0.354232
0.354016
0.353433
0.35255
0.351374
0.349874
0.348097
0.345967
0.343593
0.340821
0.337717
0.333894
0.329539
0.358988
0.357302
0.358501
0.362885
0.366675
0.368979
0.370177
0.370576
0.370496
0.370035
0.369231
0.368122
0.366637
0.364861
0.36268
0.360239
0.357341
0.3541
0.350074
0.345489
0.374738
0.373206
0.374707
0.379514
0.383663
0.386265
0.387689
0.388278
0.388345
0.388007
0.387291
0.386239
0.384778
0.382992
0.380761
0.37823
0.375207
0.371792
0.367555
0.3627
0.391899
0.390462
0.392278
0.397516
0.402043
0.404958
0.406618
0.407412
0.407634
0.407433
0.406803
0.405823
0.404374
0.402581
0.400281
0.397661
0.394478
0.390889
0.3864
0.381261
0.410346
0.409078
0.411245
0.416971
0.421911
0.425168
0.427087
0.428101
0.428489
0.428429
0.427896
0.426977
0.425548
0.423733
0.421363
0.418626
0.41528
0.411472
0.406717
0.401242
0.430408
0.429247
0.431778
0.438002
0.443379
0.446997
0.449189
0.450438
0.451004
0.451098
0.45066
0.449818
0.448394
0.446561
0.444098
0.44124
0.437692
0.433659
0.428591
0.42276
0.451965
0.450979
0.453915
0.460697
0.46655
0.47056
0.473049
0.474549
0.475305
0.475557
0.475225
0.474446
0.473035
0.471164
0.468604
0.465592
0.461832
0.45752
0.452116
0.445864
0.475359
0.474474
0.477832
0.485188
0.491545
0.495968
0.498771
0.500539
0.501496
0.501922
0.501694
0.500993
0.499578
0.497669
0.494986
0.491811
0.487792
0.48319
0.477391
0.470689
0.500451
0.499744
0.503567
0.511563
0.518468
0.523341
0.526483
0.528536
0.529708
0.530309
0.530195
0.529557
0.528142
0.526171
0.523354
0.519974
0.515679
0.510721
0.504494
0.497261
0.52764
0.527023
0.531325
0.539977
0.547458
0.552801
0.5563
0.558654
0.560052
0.560842
0.560838
0.560274
0.558839
0.556803
0.553818
0.550219
0.545591
0.540253
0.533527
0.525718
0.556777
0.556311
0.561131
0.570506
0.578609
0.584457
0.588339
0.59101
0.592647
0.593627
0.593742
0.593234
0.591779
0.589647
0.586479
0.582608
0.577618
0.57182
0.564546
0.556062
0.588244
0.587828
0.593178
0.603295
0.612052
0.618428
0.62271
0.625714
0.6276
0.628783
0.629013
0.628568
0.62707
0.624831
0.621437
0.617268
0.611849
0.605553
0.597643
0.588419
0.621887
0.621575
0.627497
0.638424
0.647882
0.65482
0.659527
0.662877
0.665023
0.666406
0.666753
0.66635
0.664801
0.662417
0.658771
0.654241
0.648348
0.641457
0.63284
0.622752
0.65814
0.657809
0.664306
0.676055
0.686241
0.693755
0.698897
0.702601
0.705011
0.706599
0.707054
0.706691
0.705059
0.70251
0.698559
0.693626
0.687173
0.679628
0.670192
0.659144
0.696889
0.696535
0.703629
0.716256
0.727208
0.735321
0.740911
0.744971
0.747646
0.749428
0.749984
0.749631
0.7479
0.745135
0.740838
0.735422
0.728344
0.720021
0.709666
0.697498
0.738491
0.737979
0.745663
0.759176
0.770908
0.77962
0.785653
0.790061
0.79299
0.794957
0.795592
0.795233
0.793358
0.790339
0.785625
0.779659
0.771843
0.762646
0.75122
0.737786
0.782995
0.782264
0.790521
0.804943
0.81746
0.826759
0.833213
0.837941
0.841096
0.843214
0.8439
0.843483
0.841425
0.838079
0.832876
0.826247
0.817587
0.807348
0.794698
0.779789
0.830836
0.829675
0.838448
0.853732
0.866998
0.876828
0.88365
0.888641
0.891973
0.894193
0.894875
0.894354
0.892034
0.888284
0.882482
0.875072
0.8654
0.853964
0.839891
0.823335
0.882157
0.880387
0.889586
0.905685
0.919635
0.929912
0.937012
0.942176
0.945602
0.947841
0.948446
0.947725
0.945059
0.940784
0.934256
0.925896
0.915054
0.90223
0.886607
0.868286
0.93743
0.934745
0.944225
0.96101
0.975514
0.986086
0.993315
0.99851
1.0019
1.00404
1.00445
1.00342
1.00027
0.995321
0.987891
0.978411
0.966226
0.951921
0.934716
0.914531
0.997153
0.993188
1.00271
1.01999
1.03484
1.04548
1.05261
1.05762
1.06079
1.06265
1.0627
1.06117
1.05737
1.05155
1.04303
1.03227
1.01867
1.00289
0.983925
0.961262
1.06201
1.05623
1.06548
1.08293
1.0978
1.10815
1.11486
1.11938
1.12206
1.12339
1.12285
1.12061
1.11591
1.10901
1.09925
1.08716
1.07215
1.05455
1.03306
1.00725
1.1328
1.12449
1.13295
1.15013
1.16456
1.17416
1.18001
1.18364
1.18547
1.18595
1.18452
1.18126
1.17543
1.16727
1.15622
1.14273
1.12582
1.10552
1.08087
1.05152
1.21017
1.19843
1.20545
1.22174
1.23513
1.24335
1.24777
1.24998
1.25052
1.24975
1.24707
1.2425
1.23531
1.22582
1.21336
1.19782
1.17799
1.15432
1.12608
1.0926
1.29507
1.27858
1.28321
1.29778
1.30933
1.3154
1.31768
1.31786
1.31659
1.3141
1.30982
1.30365
1.295
1.284
1.26939
1.25071
1.22724
1.19962
1.16704
1.12849
1.38739
1.36451
1.36557
1.37743
1.38622
1.38928
1.38867
1.38616
1.38255
1.37792
1.37172
1.36381
1.35361
1.34034
1.32236
1.29962
1.27169
1.23901
1.20082
1.15587
1.48632
1.45477
1.45082
1.45894
1.46413
1.46344
1.45934
1.45364
1.44731
1.44025
1.43204
1.42242
1.40999
1.39308
1.37069
1.34286
1.30902
1.26947
1.2238
1.17059
1.58797
1.54537
1.53512
1.53893
1.54026
1.53573
1.52809
1.51921
1.5102
1.5008
1.49079
1.47885
1.46268
1.4408
1.4127
1.37785
1.33571
1.28659
1.23069
1.16647
1.68577
1.62946
1.61244
1.61282
1.61173
1.60486
1.5951
1.58422
1.57344
1.56234
1.55043
1.53486
1.51342
1.48497
1.44875
1.40367
1.34928
1.28611
1.21543
1.13581
1.76584
1.69517
1.67404
1.67562
1.67731
1.67307
1.66545
1.65593
1.64579
1.63435
1.62002
1.59909
1.5704
1.53217
1.48337
1.42223
1.349
1.2646
1.17159
1.06892
1.80886
1.72727
1.71134
1.72632
1.74308
1.75246
1.75589
1.75439
1.74925
1.73915
1.72188
1.69369
1.65422
1.60046
1.53135
1.44477
1.3418
1.22377
1.0949
0.955602
1.78507
1.70851
1.72107
1.77489
1.82999
1.87223
1.9012
1.91771
1.92359
1.91654
1.89524
1.85642
1.79978
1.72112
1.62003
1.49347
1.34336
1.17122
0.984154
0.785483
1.66604
1.63074
1.71581
1.84989
1.97692
2.07666
2.14738
2.19133
2.21227
2.20844
2.1801
2.12433
2.04137
1.92573
1.77755
1.592
1.3715
1.11728
0.840343
0.548528
1.42761
1.5036
1.72611
1.98826
2.21687
2.38759
2.50179
2.56854
2.59731
2.58944
2.54784
2.46853
2.35238
2.19107
1.98444
1.72313
1.40921
1.04204
0.63753
0.209439
1.12478
1.41461
1.8361
2.24064
2.55451
2.76519
2.88792
2.94326
2.9506
2.91724
2.84848
2.73883
2.58685
2.38001
2.11368
1.77012
1.34832
0.84425
0.277464
-0.333664
1.02083
1.60431
2.19321
2.63965
2.92598
3.07534
3.12821
3.11976
3.07004
2.98586
2.86973
2.71678
2.52257
2.27096
1.94829
1.52815
0.995818
0.336276
-0.423437
-1.25442
1.30491
2.17438
2.74526
3.03191
3.16457
3.20274
3.18223
3.11559
3.00629
2.85827
2.67412
2.45112
2.18256
1.85321
1.44868
0.937516
0.295841
-0.515154
-1.47905
-2.56783
1.18056
2.64418
3.3034
3.65287
3.85152
3.93406
3.91414
3.82
3.65848
3.4481
3.18738
2.8832
2.50986
2.05796
1.47238
0.743728
-0.172737
-1.26958
-2.53501
-4.06197
-1.07234
2.19052
4.03087
4.72339
4.90315
4.86176
4.71406
4.52115
4.29521
4.04668
3.76777
3.45836
3.09598
2.65955
2.07433
1.3522
0.431325
-0.804843
-2.70164
-4.93639
0.000310341
0.000334638
0.000474661
0.000516539
0.00050883
0.000463109
0.000412129
0.00034499
0.000281859
0.00021123
0.000148206
8.19497e-05
2.0925e-05
-4.91532e-05
-0.000118464
-0.000210755
-0.000324184
-0.000490445
-0.00072311
-0.00102015
0.00840762
0.00841002
0.00854173
0.00858629
0.00853262
0.00845401
0.00834043
0.00822616
0.00809519
0.00796803
0.00783353
0.00770189
0.00756606
0.00743258
0.00728108
0.00711778
0.00691106
0.00664501
0.00629865
0.00594405
0.019248
0.0194506
0.0195143
0.0195971
0.0195697
0.019552
0.0194615
0.0193846
0.0192476
0.0191193
0.01894
0.0187657
0.018547
0.0183243
0.0180678
0.0177973
0.0174845
0.0171427
0.0167493
0.0163863
0.0248382
0.0250964
0.0251582
0.0252817
0.0252616
0.0252723
0.0251748
0.0251046
0.0249437
0.0248013
0.0245827
0.0243749
0.0241045
0.0238462
0.0235309
0.0232284
0.0228767
0.0225244
0.0221248
0.0217587
0.0308711
0.0311618
0.0312219
0.0313783
0.0313585
0.0313886
0.031279
0.0312139
0.0310304
0.0308812
0.0306314
0.030408
0.0301006
0.0298101
0.029461
0.0291257
0.0287442
0.0283733
0.0279532
0.027569
0.0370357
0.0373348
0.0373856
0.037573
0.0375553
0.0376063
0.0374917
0.0374352
0.0372385
0.0370864
0.0368172
0.036581
0.0362505
0.035953
0.0355774
0.035238
0.0348395
0.0344649
0.0340321
0.03365
0.042833
0.0431649
0.0432187
0.0434393
0.0434295
0.0435058
0.0433928
0.0433521
0.0431497
0.043003
0.0427201
0.0424812
0.0421312
0.041814
0.0414203
0.0410562
0.0406348
0.0402367
0.0397731
0.0393495
0.0484139
0.0487583
0.048809
0.0490639
0.0490669
0.0491726
0.0490684
0.0490463
0.0488451
0.0487054
0.0484166
0.0481744
0.0478134
0.0474975
0.0470865
0.0467232
0.0462878
0.0458818
0.0453974
0.0449594
0.0536987
0.0540757
0.0541322
0.0544218
0.0544406
0.0545766
0.0544835
0.0544822
0.0542842
0.054155
0.0538617
0.0536217
0.0532497
0.0529174
0.0524947
0.0521066
0.0516503
0.0512138
0.0506918
0.0501965
0.0591124
0.0594977
0.059553
0.0598766
0.0599128
0.0600802
0.0600012
0.0600212
0.0598299
0.059711
0.0594175
0.0591772
0.0587989
0.0584699
0.0580325
0.0576446
0.0571735
0.0567251
0.056177
0.055659
0.0646357
0.0650537
0.0651144
0.0654709
0.0655227
0.065719
0.0656521
0.0656932
0.065508
0.0654011
0.065106
0.0648688
0.0644815
0.0641352
0.0636859
0.0632695
0.062776
0.0622921
0.0617039
0.0611218
0.0707612
0.0711818
0.0712385
0.0716218
0.0716861
0.0719085
0.0718529
0.0719133
0.0717343
0.0716374
0.0713426
0.0711051
0.070712
0.0703679
0.0699037
0.0694856
0.0689767
0.0684803
0.0678676
0.0672627
0.0774505
0.0779073
0.0779662
0.0783768
0.0784493
0.0786947
0.0786458
0.0787232
0.0785464
0.0784584
0.0781592
0.077923
0.0775188
0.0771567
0.0766787
0.0762309
0.0756983
0.0751652
0.0745129
0.0738443
0.0852208
0.0856707
0.0857181
0.0861412
0.0862155
0.0864746
0.0864276
0.0865144
0.0863357
0.0862499
0.0859449
0.0857026
0.0852887
0.0849238
0.0844294
0.0839764
0.0834278
0.0828806
0.0822063
0.081518
0.0939229
0.0944002
0.0944403
0.0948738
0.0949406
0.0952043
0.095149
0.095237
0.0950481
0.0949595
0.0946406
0.094392
0.093961
0.0935767
0.0930656
0.092586
0.0920154
0.0914387
0.0907322
0.0899953
0.103992
0.104441
0.104452
0.104866
0.10491
0.105155
0.105079
0.105152
0.104944
0.10484
0.104504
0.104238
0.103792
0.103398
0.102872
0.102386
0.101807
0.101223
0.100508
0.0997634
0.115096
0.11554
0.115523
0.11591
0.115917
0.11613
0.116021
0.116068
0.115833
0.115708
0.115348
0.115066
0.114599
0.114187
0.113647
0.113146
0.112556
0.111962
0.111233
0.110468
0.127367
0.127773
0.127717
0.128056
0.128016
0.128183
0.128034
0.128043
0.127777
0.127622
0.12724
0.126934
0.126453
0.126028
0.125481
0.124979
0.124392
0.123802
0.123083
0.122328
0.140413
0.140806
0.140714
0.141006
0.140914
0.141026
0.140832
0.140798
0.140498
0.140312
0.139904
0.139579
0.139079
0.138642
0.138088
0.137583
0.136998
0.13642
0.135708
0.134964
0.154245
0.154584
0.154442
0.154662
0.15451
0.154551
0.154305
0.154216
0.15388
0.153655
0.153225
0.152873
0.152367
0.15192
0.15137
0.150872
0.150308
0.149749
0.149067
0.148351
0.16843
0.16872
0.16853
0.168674
0.168459
0.168425
0.168128
0.167983
0.167611
0.16735
0.166898
0.166532
0.166017
0.165572
0.165029
0.16455
0.164005
0.163481
0.162825
0.162148
0.182742
0.182982
0.18275
0.182816
0.182545
0.182436
0.182094
0.181895
0.181494
0.181199
0.180735
0.180351
0.179839
0.179393
0.178867
0.178404
0.177891
0.177396
0.176779
0.176139
0.196886
0.197085
0.196821
0.196817
0.196495
0.196318
0.195937
0.195694
0.195272
0.194953
0.194481
0.194092
0.19358
0.193146
0.192632
0.1922
0.191709
0.19126
0.190675
0.190089
0.210676
0.210838
0.210548
0.210475
0.210109
0.209869
0.209459
0.209176
0.208741
0.2084
0.207927
0.207528
0.207027
0.206598
0.206103
0.205688
0.205228
0.204805
0.204255
0.203702
0.223948
0.224068
0.223759
0.223625
0.223228
0.222935
0.222505
0.222189
0.221747
0.221392
0.220918
0.220522
0.220025
0.219611
0.219129
0.218745
0.218303
0.217926
0.217398
0.216896
0.236483
0.236592
0.236285
0.236108
0.235694
0.23536
0.23492
0.234578
0.234133
0.233764
0.233297
0.232895
0.232411
0.232001
0.231536
0.231164
0.230746
0.230385
0.229877
0.229388
0.24832
0.248415
0.248118
0.247907
0.247489
0.247121
0.24668
0.246318
0.245878
0.245502
0.24504
0.244642
0.244163
0.243764
0.243305
0.242954
0.242544
0.242212
0.241708
0.241243
0.259338
0.259455
0.259185
0.258961
0.258551
0.258165
0.257733
0.257361
0.256932
0.256549
0.256098
0.255694
0.255226
0.254825
0.254375
0.254025
0.253624
0.253289
0.252784
0.252303
0.269694
0.269825
0.269589
0.269359
0.268969
0.268574
0.268161
0.267786
0.267373
0.266991
0.266551
0.266148
0.265683
0.265281
0.264829
0.264479
0.264069
0.263735
0.26321
0.262714
0.27936
0.279541
0.279357
0.279144
0.278787
0.2784
0.278015
0.277645
0.277256
0.276875
0.276452
0.276043
0.275587
0.275177
0.274725
0.27436
0.273945
0.273586
0.273037
0.272499
0.288531
0.288762
0.288638
0.288451
0.288137
0.287765
0.287415
0.287059
0.286697
0.286323
0.285914
0.285507
0.285054
0.284633
0.284173
0.28379
0.283353
0.282968
0.282381
0.281793
0.297292
0.297599
0.297549
0.297409
0.297151
0.29681
0.296505
0.29617
0.29584
0.295476
0.295089
0.294678
0.294233
0.293802
0.293336
0.292931
0.292477
0.292055
0.291432
0.290786
0.305804
0.30619
0.306221
0.306134
0.30594
0.305638
0.305383
0.305075
0.304782
0.304435
0.304068
0.303662
0.303221
0.302776
0.302301
0.30187
0.301389
0.300928
0.300257
0.299544
0.314204
0.314686
0.314807
0.314788
0.314666
0.314414
0.314216
0.313945
0.313695
0.313368
0.313028
0.312625
0.312196
0.311745
0.311265
0.310813
0.310314
0.309814
0.309103
0.308327
0.322587
0.323173
0.323391
0.323449
0.323404
0.323208
0.323072
0.322843
0.322639
0.322341
0.322029
0.32164
0.32122
0.320762
0.320274
0.319798
0.319271
0.318731
0.317968
0.317121
0.331096
0.331797
0.33212
0.332267
0.332309
0.332181
0.332115
0.331938
0.331786
0.331519
0.331242
0.330866
0.330464
0.330006
0.329516
0.329023
0.32848
0.327903
0.327103
0.326194
0.339761
0.340587
0.341023
0.341267
0.341404
0.341352
0.341362
0.341243
0.341148
0.340922
0.34068
0.340327
0.339938
0.339478
0.338985
0.338474
0.337908
0.337297
0.336448
0.33547
0.348718
0.349677
0.350234
0.350588
0.350827
0.35086
0.350952
0.350899
0.350866
0.350684
0.350486
0.350155
0.349792
0.349341
0.348853
0.348335
0.347758
0.347116
0.346233
0.345199
0.357953
0.359058
0.359748
0.360219
0.360567
0.360691
0.360871
0.360889
0.360924
0.360795
0.360643
0.360348
0.360008
0.359568
0.359086
0.358556
0.35796
0.357291
0.356363
0.355266
0.367586
0.368844
0.369673
0.370274
0.370742
0.370969
0.371244
0.371343
0.371452
0.371381
0.371283
0.371023
0.370719
0.370298
0.369827
0.369297
0.368697
0.368003
0.367046
0.365898
0.377576
0.379003
0.379983
0.380722
0.381319
0.381657
0.382036
0.382223
0.382414
0.382411
0.382371
0.382158
0.381886
0.381485
0.381027
0.380494
0.379881
0.379166
0.378168
0.376961
0.388036
0.389639
0.39078
0.391671
0.392407
0.392867
0.393361
0.393646
0.393926
0.393996
0.394023
0.393857
0.39363
0.393258
0.392819
0.392294
0.391682
0.390948
0.389924
0.388669
0.398919
0.400717
0.402034
0.403087
0.403972
0.404563
0.405179
0.405571
0.405948
0.406101
0.406198
0.406093
0.405909
0.405567
0.405149
0.404629
0.404009
0.403259
0.402198
0.400885
0.410338
0.412341
0.413843
0.415074
0.416119
0.416855
0.417603
0.418112
0.418595
0.418837
0.419014
0.418969
0.418842
0.418539
0.418149
0.417644
0.41703
0.416265
0.41518
0.413819
0.422246
0.424474
0.426178
0.427598
0.428817
0.429707
0.430597
0.431233
0.43183
0.432173
0.432435
0.432464
0.432392
0.43213
0.431769
0.431275
0.430659
0.429881
0.428759
0.42734
0.434757
0.437222
0.439142
0.440769
0.442175
0.443235
0.444279
0.445053
0.445774
0.446223
0.446581
0.446685
0.44668
0.446468
0.446142
0.44567
0.445063
0.444271
0.443125
0.441655
0.447834
0.45056
0.452714
0.454563
0.45617
0.457412
0.458622
0.459545
0.4604
0.460968
0.461426
0.461619
0.46168
0.461521
0.46123
0.460776
0.460169
0.459366
0.458181
0.45665
0.461598
0.4646
0.467003
0.469094
0.470917
0.472357
0.473746
0.474832
0.475831
0.476526
0.477095
0.477378
0.477518
0.477418
0.477169
0.476741
0.476144
0.475327
0.474113
0.472525
0.476022
0.479325
0.482
0.48435
0.486405
0.488059
0.48964
0.490901
0.492055
0.49289
0.493575
0.493963
0.494179
0.494143
0.493934
0.49353
0.492932
0.492104
0.490846
0.48919
0.491228
0.494854
0.497818
0.500448
0.502755
0.50464
0.506428
0.507878
0.509199
0.510181
0.510995
0.511488
0.511794
0.511825
0.511664
0.511287
0.5107
0.509853
0.508559
0.506835
0.507208
0.511183
0.514461
0.517393
0.519969
0.522103
0.524113
0.525767
0.527266
0.52841
0.529357
0.529971
0.530365
0.530469
0.530352
0.530001
0.52941
0.528548
0.5272
0.525398
0.524083
0.528433
0.532047
0.535305
0.538171
0.540574
0.542822
0.544696
0.546386
0.547701
0.548794
0.549529
0.550023
0.550202
0.550136
0.549813
0.549227
0.548338
0.546943
0.545056
0.541861
0.546617
0.550595
0.554204
0.557382
0.560073
0.562577
0.564687
0.566581
0.568083
0.569327
0.570199
0.57079
0.571051
0.57103
0.570734
0.570137
0.569225
0.567761
0.565779
0.560664
0.565857
0.570226
0.574213
0.577726
0.580729
0.583508
0.585871
0.587984
0.589681
0.59109
0.592098
0.5928
0.593142
0.593173
0.5929
0.5923
0.591348
0.589819
0.587728
0.580516
0.586183
0.590974
0.595369
0.599243
0.60258
0.605654
0.608289
0.610636
0.612546
0.614125
0.615287
0.616095
0.616525
0.6166
0.616351
0.615728
0.614739
0.61312
0.61091
0.601541
0.607717
0.612964
0.617798
0.622062
0.62576
0.629151
0.632077
0.634673
0.636806
0.638571
0.639885
0.640812
0.641328
0.641452
0.641218
0.640578
0.639531
0.63782
0.635469
0.623779
0.630509
0.636248
0.641557
0.646239
0.650326
0.654057
0.657297
0.660159
0.662534
0.66449
0.665975
0.667017
0.667625
0.667789
0.66757
0.66689
0.665785
0.663954
0.661451
0.647353
0.65468
0.660952
0.666774
0.671909
0.676414
0.680511
0.684086
0.687234
0.689862
0.692025
0.693678
0.694848
0.695544
0.695752
0.695535
0.694819
0.693627
0.691671
0.688984
0.672323
0.680299
0.687149
0.693524
0.699147
0.704104
0.708594
0.71253
0.715983
0.718886
0.721263
0.723106
0.724397
0.725188
0.725427
0.725213
0.724431
0.723153
0.721038
0.718151
0.69881
0.70749
0.714966
0.721942
0.728092
0.733537
0.738451
0.742774
0.746554
0.749744
0.752354
0.754382
0.755809
0.756687
0.75696
0.75673
0.755884
0.754483
0.752196
0.749069
0.726893
0.736339
0.744495
0.75212
0.758842
0.764813
0.770184
0.774925
0.779054
0.782558
0.785408
0.787643
0.7892
0.790173
0.790464
0.790217
0.789273
0.787745
0.785247
0.78186
0.75669
0.766971
0.775866
0.784197
0.791539
0.798079
0.803945
0.809134
0.81364
0.817472
0.820582
0.823023
0.824723
0.82578
0.826091
0.825801
0.824755
0.823057
0.820329
0.816629
0.788299
0.799488
0.809188
0.818285
0.8263
0.833459
0.839858
0.845534
0.850443
0.854632
0.858014
0.860684
0.862519
0.863669
0.863979
0.863645
0.862459
0.860581
0.857574
0.853535
0.821835
0.834017