/*--------------------------------*- C++ -*----------------------------------*\
  =========                 |
  \\      /  F ield         | OpenFOAM: The Open Source CFD Toolbox
   \\    /   O peration     | Website:  https://openfoam.org
    \\  /    A nd           | Version:  6
     \\/     M anipulation  |
\*---------------------------------------------------------------------------*/
FoamFile
{
    version     2.0;
    format      ascii;
    class       surfaceScalarField;
    location    "5";
    object      phi;
}
// * * * * * * * * * * * * * * * * * * * * * * * * * * * * * * * * * * * * * //

dimensions      [0 3 -1 0 0 0 0];

internalField   nonuniform List<scalar> 
258600
(
-3.32537e-09
-8.45183e-08
3.05939e-09
-3.56148e-09
-9.83083e-08
-3.74273e-09
-1.11547e-07
-3.88787e-09
-1.23842e-07
-4.0179e-09
-1.34804e-07
-4.14651e-09
-1.44202e-07
-4.28393e-09
-1.51972e-07
-4.43117e-09
-1.58185e-07
-4.58643e-09
-1.62994e-07
-4.74275e-09
-1.66588e-07
-4.89431e-09
-1.69159e-07
-5.03306e-09
-1.70873e-07
-5.15488e-09
-1.7187e-07
-5.25468e-09
-1.72255e-07
-5.33225e-09
-1.7211e-07
-5.38709e-09
-1.71505e-07
-5.42377e-09
-1.70508e-07
-5.44593e-09
-1.69204e-07
-5.46025e-09
-1.67693e-07
-1.66081e-07
-5.46832e-09
-4.23294e-09
-8.43569e-08
4.07445e-09
-4.40178e-09
-9.81334e-08
-4.54466e-09
-1.114e-07
-4.66349e-09
-1.23721e-07
-4.76961e-09
-1.34698e-07
-4.87691e-09
-1.44097e-07
-4.99178e-09
-1.5186e-07
-5.11947e-09
-1.58062e-07
-5.25428e-09
-1.62862e-07
-5.39526e-09
-1.66452e-07
-5.53153e-09
-1.69025e-07
-5.66192e-09
-1.70747e-07
-5.7764e-09
-1.71757e-07
-5.87628e-09
-1.72157e-07
-5.95584e-09
-1.7203e-07
-6.0198e-09
-1.71441e-07
-6.06659e-09
-1.70459e-07
-6.10436e-09
-1.69166e-07
-6.13125e-09
-1.67662e-07
-1.66057e-07
-6.15403e-09
-5.94102e-09
-8.43398e-08
5.92401e-09
-5.98523e-09
-9.80847e-08
-6.03955e-09
-1.11339e-07
-6.10273e-09
-1.23658e-07
-6.16813e-09
-1.34632e-07
-6.24596e-09
-1.44025e-07
-6.33021e-09
-1.51779e-07
-6.43012e-09
-1.57971e-07
-6.53313e-09
-1.62763e-07
-6.64664e-09
-1.66348e-07
-6.75413e-09
-1.68919e-07
-6.86374e-09
-1.70645e-07
-6.95889e-09
-1.71661e-07
-7.05037e-09
-1.72071e-07
-7.12341e-09
-1.71954e-07
-7.1916e-09
-1.71376e-07
-7.2419e-09
-1.70404e-07
-7.28975e-09
-1.6912e-07
-7.31921e-09
-1.67625e-07
-1.66029e-07
-7.34935e-09
-7.97946e-09
-8.43726e-08
8.00869e-09
-7.96463e-09
-9.80994e-08
-7.95062e-09
-1.11346e-07
-7.95581e-09
-1.23656e-07
-7.96758e-09
-1.34619e-07
-8.00242e-09
-1.43998e-07
-8.04499e-09
-1.51738e-07
-8.10989e-09
-1.57917e-07
-8.17712e-09
-1.62697e-07
-8.26091e-09
-1.66275e-07
-8.33854e-09
-1.68842e-07
-8.42569e-09
-1.70566e-07
-8.49961e-09
-1.71585e-07
-8.57784e-09
-1.71998e-07
-8.6394e-09
-1.71887e-07
-8.70363e-09
-1.71314e-07
-8.75014e-09
-1.70349e-07
-8.80075e-09
-1.6907e-07
-8.83123e-09
-1.67581e-07
-1.65991e-07
-8.86903e-09
-1.01096e-08
-8.4434e-08
1.01586e-08
-1.00687e-08
-9.81476e-08
-1.00173e-08
-1.11394e-07
-9.98604e-09
-1.23698e-07
-9.95669e-09
-1.34649e-07
-9.95533e-09
-1.44013e-07
-9.95916e-09
-1.51736e-07
-9.9909e-09
-1.57899e-07
-1.00232e-08
-1.62666e-07
-1.00782e-08
-1.66233e-07
-1.01262e-08
-1.68793e-07
-1.01908e-08
-1.70513e-07
-1.02419e-08
-1.71529e-07
-1.03056e-08
-1.71942e-07
-1.03521e-08
-1.71832e-07
-1.04096e-08
-1.71262e-07
-1.04483e-08
-1.70298e-07
-1.04991e-08
-1.69023e-07
-1.05272e-08
-1.67537e-07
-1.65952e-07
-1.05699e-08
-1.22657e-08
-8.45149e-08
1.23267e-08
-1.22114e-08
-9.82188e-08
-1.21385e-08
-1.11467e-07
-1.20843e-08
-1.23768e-07
-1.20255e-08
-1.3471e-07
-1.1996e-08
-1.4406e-07
-1.19677e-08
-1.51766e-07
-1.19708e-08
-1.57912e-07
-1.19722e-08
-1.62664e-07
-1.20011e-08
-1.66218e-07
-1.20219e-08
-1.68767e-07
-1.2065e-08
-1.7048e-07
-1.20945e-08
-1.71491e-07
-1.21424e-08
-1.71901e-07
-1.21732e-08
-1.71788e-07
-1.22209e-08
-1.71216e-07
-1.22495e-08
-1.70252e-07
-1.22959e-08
-1.68977e-07
-1.23179e-08
-1.67492e-07
-1.65909e-07
-1.23595e-08
-1.44344e-08
-8.46117e-08
1.44965e-08
-1.4367e-08
-9.83104e-08
-1.42763e-08
-1.11564e-07
-1.42028e-08
-1.23864e-07
-1.41202e-08
-1.34797e-07
-1.40678e-08
-1.44133e-07
-1.4013e-08
-1.51822e-07
-1.39922e-08
-1.57951e-07
-1.39671e-08
-1.62687e-07
-1.39735e-08
-1.66226e-07
-1.39699e-08
-1.68764e-07
-1.39935e-08
-1.70467e-07
-1.40019e-08
-1.7147e-07
-1.40345e-08
-1.71875e-07
-1.40483e-08
-1.71758e-07
-1.4085e-08
-1.71183e-07
-1.41005e-08
-1.70216e-07
-1.41396e-08
-1.6894e-07
-1.41508e-08
-1.67454e-07
-1.65874e-07
-1.41875e-08
-1.65956e-08
-8.47253e-08
1.66819e-08
-1.65075e-08
-9.8421e-08
-1.63989e-08
-1.11677e-07
-1.63097e-08
-1.23974e-07
-1.62094e-08
-1.34898e-07
-1.61401e-08
-1.44222e-07
-1.60653e-08
-1.51895e-07
-1.6026e-08
-1.58007e-07
-1.59795e-08
-1.62727e-07
-1.59671e-08
-1.66252e-07
-1.59427e-08
-1.68777e-07
-1.59489e-08
-1.7047e-07
-1.59385e-08
-1.71464e-07
-1.59559e-08
-1.71862e-07
-1.59536e-08
-1.71739e-07
-1.59781e-08
-1.71159e-07
-1.59802e-08
-1.70188e-07
-1.60097e-08
-1.68908e-07
-1.60093e-08
-1.67421e-07
-1.65841e-07
-1.60384e-08
-1.87283e-08
-8.48405e-08
1.88276e-08
-1.86283e-08
-9.854e-08
-1.85086e-08
-1.11798e-07
-1.84077e-08
-1.24094e-07
-1.82939e-08
-1.35011e-07
-1.82108e-08
-1.44323e-07
-1.81195e-08
-1.51982e-07
-1.80643e-08
-1.58078e-07
-1.79994e-08
-1.62782e-07
-1.79703e-08
-1.66293e-07
-1.79269e-08
-1.68806e-07
-1.79169e-08
-1.70488e-07
-1.78882e-08
-1.71473e-07
-1.7891e-08
-1.71863e-07
-1.7872e-08
-1.71733e-07
-1.78838e-08
-1.71147e-07
-1.78709e-08
-1.70171e-07
-1.78897e-08
-1.68887e-07
-1.78755e-08
-1.67398e-07
-1.65819e-07
-1.78956e-08
-2.09066e-08
-8.49782e-08
2.10361e-08
-2.0779e-08
-9.86805e-08
-2.06374e-08
-1.11937e-07
-2.05177e-08
-1.24228e-07
-2.03866e-08
-1.35137e-07
-2.02875e-08
-1.44436e-07
-2.01792e-08
-1.52081e-07
-2.01078e-08
-1.58162e-07
-2.00253e-08
-1.6285e-07
-1.99798e-08
-1.66348e-07
-1.99186e-08
-1.68848e-07
-1.98926e-08
-1.70519e-07
-1.98467e-08
-1.71494e-07
-1.98345e-08
-1.71876e-07
-1.97995e-08
-1.71738e-07
-1.97978e-08
-1.71145e-07
-1.97703e-08
-1.70163e-07
-1.9777e-08
-1.68875e-07
-1.9749e-08
-1.67383e-07
-1.65803e-07
-1.97585e-08
-2.30167e-08
-8.51037e-08
2.31438e-08
-2.28914e-08
-9.88147e-08
-2.27466e-08
-1.12076e-07
-2.26189e-08
-1.24367e-07
-2.24767e-08
-1.35271e-07
-2.23644e-08
-1.44561e-07
-2.22409e-08
-1.52192e-07
-2.21541e-08
-1.58259e-07
-2.20545e-08
-1.62933e-07
-2.19927e-08
-1.66417e-07
-2.19138e-08
-1.68905e-07
-2.18716e-08
-1.70565e-07
-2.18082e-08
-1.71531e-07
-2.17806e-08
-1.71903e-07
-2.17288e-08
-1.71758e-07
-2.17128e-08
-1.71157e-07
-2.16695e-08
-1.70169e-07
-2.16632e-08
-1.68876e-07
-2.162e-08
-1.67381e-07
-1.65799e-07
-2.16177e-08
-2.51925e-08
-8.52497e-08
2.53459e-08
-2.50436e-08
-9.89676e-08
-2.48801e-08
-1.12231e-07
-2.47353e-08
-1.2452e-07
-2.45769e-08
-1.35418e-07
-2.44483e-08
-1.44698e-07
-2.43082e-08
-1.52317e-07
-2.42046e-08
-1.5837e-07
-2.40876e-08
-1.63031e-07
-2.40087e-08
-1.66501e-07
-2.39122e-08
-1.68977e-07
-2.38531e-08
-1.70626e-07
-2.37724e-08
-1.71582e-07
-2.37285e-08
-1.71945e-07
-2.36602e-08
-1.71791e-07
-2.36289e-08
-1.71183e-07
-2.35699e-08
-1.70189e-07
-2.35493e-08
-1.6889e-07
-2.3491e-08
-1.67392e-07
-1.65807e-07
-2.34756e-08
-2.73457e-08
-8.54025e-08
2.75145e-08
-2.71854e-08
-9.91295e-08
-2.70115e-08
-1.12395e-07
-2.68542e-08
-1.24684e-07
-2.66822e-08
-1.35578e-07
-2.6538e-08
-1.4485e-07
-2.63814e-08
-1.52458e-07
-2.62602e-08
-1.58498e-07
-2.61252e-08
-1.63146e-07
-2.60279e-08
-1.66603e-07
-2.59129e-08
-1.69067e-07
-2.58356e-08
-1.70705e-07
-2.57366e-08
-1.71652e-07
-2.56753e-08
-1.72006e-07
-2.55893e-08
-1.71843e-07
-2.55416e-08
-1.71227e-07
-2.54658e-08
-1.70225e-07
-2.54297e-08
-1.68921e-07
-2.53553e-08
-1.67419e-07
-1.65832e-07
-2.53254e-08
-2.95563e-08
-8.5574e-08
2.97432e-08
-2.93749e-08
-9.93116e-08
-2.91806e-08
-1.12579e-07
-2.90023e-08
-1.24868e-07
-2.88098e-08
-1.35758e-07
-2.86444e-08
-1.45022e-07
-2.8467e-08
-1.52619e-07
-2.83247e-08
-1.58646e-07
-2.81692e-08
-1.63281e-07
-2.80514e-08
-1.66726e-07
-2.79165e-08
-1.69178e-07
-2.78193e-08
-1.70805e-07
-2.77014e-08
-1.7174e-07
-2.76213e-08
-1.72085e-07
-2.75173e-08
-1.71913e-07
-2.7452e-08
-1.71289e-07
-2.73592e-08
-1.7028e-07
-2.73065e-08
-1.6897e-07
-2.7216e-08
-1.67464e-07
-1.65873e-07
-2.71705e-08
-3.17766e-08
-8.57529e-08
3.19685e-08
-3.15809e-08
-9.95071e-08
-3.13671e-08
-1.12782e-07
-3.11662e-08
-1.25074e-07
-3.09505e-08
-1.35962e-07
-3.0761e-08
-1.45218e-07
-3.05606e-08
-1.52804e-07
-3.03947e-08
-1.58819e-07
-3.0217e-08
-1.6344e-07
-3.00765e-08
-1.66872e-07
-2.99205e-08
-1.69311e-07
-2.98018e-08
-1.70927e-07
-2.96639e-08
-1.71852e-07
-2.95634e-08
-1.72187e-07
-2.94406e-08
-1.72006e-07
-2.93561e-08
-1.71373e-07
-2.92457e-08
-1.70356e-07
-2.91751e-08
-1.6904e-07
-2.90683e-08
-1.67529e-07
-1.65934e-07
-2.9006e-08
-3.40283e-08
-8.59492e-08
3.42397e-08
-3.38092e-08
-9.97242e-08
-3.35692e-08
-1.13009e-07
-3.33414e-08
-1.25306e-07
-3.30993e-08
-1.36192e-07
-3.28833e-08
-1.45441e-07
-3.2658e-08
-1.53016e-07
-3.24667e-08
-1.59018e-07
-3.22657e-08
-1.63625e-07
-3.21011e-08
-1.67043e-07
-3.19232e-08
-1.6947e-07
-3.17818e-08
-1.71074e-07
-3.16232e-08
-1.71988e-07
-3.15014e-08
-1.72313e-07
-3.13591e-08
-1.72122e-07
-3.12547e-08
-1.7148e-07
-3.11262e-08
-1.70455e-07
-3.1037e-08
-1.69132e-07
-3.09136e-08
-1.67617e-07
-1.66017e-07
-3.08338e-08
-3.63071e-08
-8.61685e-08
3.65394e-08
-3.60577e-08
-9.9974e-08
-3.57849e-08
-1.13271e-07
-3.5525e-08
-1.25572e-07
-3.52531e-08
-1.36454e-07
-3.50079e-08
-1.45694e-07
-3.47561e-08
-1.53257e-07
-3.4538e-08
-1.59244e-07
-3.43129e-08
-1.63837e-07
-3.4123e-08
-1.67242e-07
-3.39226e-08
-1.69656e-07
-3.37573e-08
-1.71248e-07
-3.35776e-08
-1.72151e-07
-3.34328e-08
-1.72464e-07
-3.32709e-08
-1.72263e-07
-3.31448e-08
-1.71612e-07
-3.29982e-08
-1.70578e-07
-3.28888e-08
-1.69247e-07
-3.27494e-08
-1.67727e-07
-1.66121e-07
-3.26509e-08
-3.85731e-08
-8.64184e-08
3.88257e-08
-3.82929e-08
-1.00255e-07
-3.79906e-08
-1.13563e-07
-3.7701e-08
-1.25867e-07
-3.74014e-08
-1.36746e-07
-3.7128e-08
-1.45977e-07
-3.68505e-08
-1.53527e-07
-3.66055e-08
-1.59501e-07
-3.63562e-08
-1.64079e-07
-3.61406e-08
-1.67469e-07
-3.59174e-08
-1.6987e-07
-3.57273e-08
-1.7145e-07
-3.5526e-08
-1.72341e-07
-3.53578e-08
-1.72644e-07
-3.51755e-08
-1.72433e-07
-3.50273e-08
-1.71772e-07
-3.4862e-08
-1.70728e-07
-3.47321e-08
-1.6939e-07
-3.4576e-08
-1.67863e-07
-1.66252e-07
-3.44582e-08
-4.0817e-08
-8.66733e-08
4.10844e-08
-4.05183e-08
-1.0055e-07
-4.01913e-08
-1.13877e-07
-3.98739e-08
-1.26189e-07
-3.95473e-08
-1.37066e-07
-3.92453e-08
-1.46289e-07
-3.89419e-08
-1.53826e-07
-3.86691e-08
-1.59785e-07
-3.83954e-08
-1.64349e-07
-3.81531e-08
-1.67725e-07
-3.79069e-08
-1.70112e-07
-3.76911e-08
-1.7168e-07
-3.74682e-08
-1.72559e-07
-3.72749e-08
-1.72851e-07
-3.70725e-08
-1.72629e-07
-3.69006e-08
-1.71957e-07
-3.67168e-08
-1.70904e-07
-3.65649e-08
-1.69557e-07
-3.63933e-08
-1.68022e-07
-1.66405e-07
-3.62551e-08
-4.30175e-08
-8.69307e-08
4.32905e-08
-4.2711e-08
-1.00851e-07
-4.23686e-08
-1.14206e-07
-4.20303e-08
-1.26531e-07
-4.1681e-08
-1.37411e-07
-4.13532e-08
-1.46628e-07
-4.10256e-08
-1.54155e-07
-4.07258e-08
-1.601e-07
-4.04282e-08
-1.6465e-07
-4.01591e-08
-1.68012e-07
-3.98898e-08
-1.70386e-07
-3.96476e-08
-1.71941e-07
-3.94024e-08
-1.72808e-07
-3.91841e-08
-1.73089e-07
-3.89604e-08
-1.72856e-07
-3.87647e-08
-1.72174e-07
-3.85615e-08
-1.7111e-07
-3.83873e-08
-1.69754e-07
-3.81988e-08
-1.68212e-07
-1.66587e-07
-3.80397e-08
-4.52138e-08
-8.71981e-08
4.54942e-08
-4.48963e-08
-1.01168e-07
-4.45374e-08
-1.14556e-07
-4.41778e-08
-1.26898e-07
-4.38067e-08
-1.37782e-07
-4.34532e-08
-1.46995e-07
-4.31021e-08
-1.54511e-07
-4.27754e-08
-1.60444e-07
-4.24542e-08
-1.6498e-07
-4.21577e-08
-1.68328e-07
-4.18653e-08
-1.70689e-07
-4.15962e-08
-1.72231e-07
-4.13291e-08
-1.73087e-07
-4.10841e-08
-1.73356e-07
-4.08399e-08
-1.73111e-07
-4.06187e-08
-1.72418e-07
-4.03965e-08
-1.71344e-07
-4.01986e-08
-1.69976e-07
-3.99943e-08
-1.68426e-07
-1.66793e-07
-3.98133e-08
-4.74175e-08
-8.74985e-08
4.77081e-08
-4.70776e-08
-1.01515e-07
-4.66992e-08
-1.14934e-07
-4.63166e-08
-1.27294e-07
-4.59239e-08
-1.38183e-07
-4.55451e-08
-1.47392e-07
-4.51709e-08
-1.54899e-07
-4.48172e-08
-1.6082e-07
-4.44723e-08
-1.65342e-07
-4.41483e-08
-1.68677e-07
-4.38326e-08
-1.71024e-07
-4.35361e-08
-1.72554e-07
-4.3246e-08
-1.73398e-07
-4.29746e-08
-1.73656e-07
-4.27083e-08
-1.734e-07
-4.24616e-08
-1.72695e-07
-4.2219e-08
-1.7161e-07
-4.19971e-08
-1.70232e-07
-4.17752e-08
-1.68672e-07
-1.67032e-07
-4.15719e-08
-4.96058e-08
-8.78067e-08
4.99059e-08
-4.9251e-08
-1.01878e-07
-4.88551e-08
-1.15334e-07
-4.84497e-08
-1.27715e-07
-4.80354e-08
-1.38611e-07
-4.76306e-08
-1.47817e-07
-4.72331e-08
-1.55316e-07
-4.68518e-08
-1.61225e-07
-4.64832e-08
-1.65734e-07
-4.61312e-08
-1.69056e-07
-4.57918e-08
-1.7139e-07
-4.54674e-08
-1.72908e-07
-4.51547e-08
-1.7374e-07
-4.48554e-08
-1.73986e-07
-4.45677e-08
-1.73718e-07
-4.4294e-08
-1.73001e-07
-4.40314e-08
-1.71904e-07
-4.37842e-08
-1.70514e-07
-4.35456e-08
-1.68943e-07
-1.67294e-07
-4.33192e-08
-5.17767e-08
-8.81287e-08
5.20842e-08
-5.14091e-08
-1.02258e-07
-5.09983e-08
-1.15756e-07
-5.05723e-08
-1.2816e-07
-5.01377e-08
-1.39066e-07
-4.97077e-08
-1.48272e-07
-4.92872e-08
-1.55764e-07
-4.88787e-08
-1.61662e-07
-4.8486e-08
-1.66158e-07
-4.81059e-08
-1.69467e-07
-4.77425e-08
-1.71789e-07
-4.73898e-08
-1.73295e-07
-4.70532e-08
-1.74115e-07
-4.67264e-08
-1.74349e-07
-4.64154e-08
-1.7407e-07
-4.61149e-08
-1.73342e-07
-4.58307e-08
-1.72232e-07
-4.5558e-08
-1.70831e-07
-4.53005e-08
-1.69248e-07
-1.67589e-07
-4.50504e-08
-5.39322e-08
-8.84589e-08
5.4243e-08
-5.35557e-08
-1.02651e-07
-5.31326e-08
-1.16196e-07
-5.26871e-08
-1.28628e-07
-5.2233e-08
-1.39546e-07
-5.17782e-08
-1.48754e-07
-5.13348e-08
-1.56239e-07
-5.08988e-08
-1.62127e-07
-5.0482e-08
-1.66612e-07
-5.00735e-08
-1.69908e-07
-4.96856e-08
-1.72218e-07
-4.93044e-08
-1.73712e-07
-4.8944e-08
-1.7452e-07
-4.85885e-08
-1.74743e-07
-4.82547e-08
-1.74452e-07
-4.79262e-08
-1.73711e-07
-4.76205e-08
-1.72589e-07
-4.73215e-08
-1.71174e-07
-4.70455e-08
-1.69578e-07
-1.67909e-07
-4.6771e-08
-5.61054e-08
-8.88158e-08
5.64257e-08
-5.57095e-08
-1.0307e-07
-5.52685e-08
-1.16662e-07
-5.48003e-08
-1.29123e-07
-5.43246e-08
-1.40055e-07
-5.38439e-08
-1.49265e-07
-5.33766e-08
-1.56746e-07
-5.29129e-08
-1.62624e-07
-5.24711e-08
-1.67098e-07
-5.20339e-08
-1.70382e-07
-5.16208e-08
-1.7268e-07
-5.12106e-08
-1.74162e-07
-5.0825e-08
-1.74959e-07
-5.0441e-08
-1.7517e-07
-5.00825e-08
-1.74867e-07
-4.97263e-08
-1.74114e-07
-4.93971e-08
-1.72979e-07
-4.90715e-08
-1.71551e-07
-4.87744e-08
-1.69942e-07
-1.68262e-07
-4.84751e-08
-5.82633e-08
-8.91763e-08
5.85889e-08
-5.78559e-08
-1.035e-07
-5.73994e-08
-1.17146e-07
-5.69094e-08
-1.2964e-07
-5.64119e-08
-1.40589e-07
-5.59051e-08
-1.49803e-07
-5.54134e-08
-1.5728e-07
-5.49215e-08
-1.6315e-07
-5.44542e-08
-1.67613e-07
-5.39879e-08
-1.70886e-07
-5.35489e-08
-1.73172e-07
-5.31093e-08
-1.74643e-07
-5.26981e-08
-1.75428e-07
-5.22848e-08
-1.75627e-07
-5.19015e-08
-1.75313e-07
-5.15166e-08
-1.74547e-07
-5.11638e-08
-1.73398e-07
-5.08107e-08
-1.71956e-07
-5.04923e-08
-1.70333e-07
-1.68641e-07
-5.01672e-08
-6.04387e-08
-8.95576e-08
6.07819e-08
-6.00105e-08
-1.03952e-07
-5.95329e-08
-1.17655e-07
-5.90182e-08
-1.30184e-07
-5.84969e-08
-1.4115e-07
-5.7963e-08
-1.5037e-07
-5.74457e-08
-1.57844e-07
-5.69252e-08
-1.63707e-07
-5.64312e-08
-1.6816e-07
-5.59354e-08
-1.71422e-07
-5.54693e-08
-1.73697e-07
-5.5e-08
-1.75156e-07
-5.45617e-08
-1.7593e-07
-5.41189e-08
-1.76118e-07
-5.37089e-08
-1.75791e-07
-5.32951e-08
-1.75012e-07
-5.29167e-08
-1.7385e-07
-5.25358e-08
-1.72394e-07
-5.21934e-08
-1.70755e-07
-1.69052e-07
-5.1842e-08
-6.25887e-08
-8.99484e-08
6.29408e-08
-6.21467e-08
-1.04418e-07
-6.16535e-08
-1.18182e-07
-6.11178e-08
-1.30749e-07
-6.05749e-08
-1.41735e-07
-6.00152e-08
-1.50962e-07
-5.94726e-08
-1.58435e-07
-5.89236e-08
-1.64292e-07
-5.84023e-08
-1.68736e-07
-5.78767e-08
-1.71987e-07
-5.73825e-08
-1.74252e-07
-5.68829e-08
-1.75699e-07
-5.64167e-08
-1.76462e-07
-5.59438e-08
-1.76638e-07
-5.55065e-08
-1.76299e-07
-5.50633e-08
-1.75507e-07
-5.46585e-08
-1.74331e-07
-5.42492e-08
-1.7286e-07
-5.3882e-08
-1.71206e-07
-1.69489e-07
-5.35035e-08
-6.4757e-08
-9.03624e-08
6.51317e-08
-6.42925e-08
-1.04908e-07
-6.37781e-08
-1.18732e-07
-6.32188e-08
-1.31339e-07
-6.2652e-08
-1.42346e-07
-6.20655e-08
-1.51582e-07
-6.14962e-08
-1.59055e-07
-6.09179e-08
-1.64906e-07
-6.03681e-08
-1.69342e-07
-5.9812e-08
-1.72584e-07
-5.92885e-08
-1.74838e-07
-5.87581e-08
-1.76274e-07
-5.82624e-08
-1.77026e-07
-5.7759e-08
-1.7719e-07
-5.72927e-08
-1.76839e-07
-5.68196e-08
-1.76033e-07
-5.63867e-08
-1.74843e-07
-5.59484e-08
-1.73356e-07
-5.55539e-08
-1.71686e-07
-1.69955e-07
-5.51475e-08
-6.69172e-08
-9.07909e-08
6.73059e-08
-6.64345e-08
-1.05415e-07
-6.5901e-08
-1.19302e-07
-6.53186e-08
-1.3195e-07
-6.47278e-08
-1.42982e-07
-6.41141e-08
-1.52227e-07
-6.35171e-08
-1.59702e-07
-6.29089e-08
-1.6555e-07
-6.23293e-08
-1.69978e-07
-6.17419e-08
-1.7321e-07
-6.11877e-08
-1.75454e-07
-6.06255e-08
-1.7688e-07
-6.00989e-08
-1.77621e-07
-5.95639e-08
-1.77773e-07
-5.90672e-08
-1.77408e-07
-5.85634e-08
-1.76589e-07
-5.81009e-08
-1.75384e-07
-5.76327e-08
-1.73881e-07
-5.72095e-08
-1.72195e-07
-1.7045e-07
-5.67743e-08
-6.91004e-08
-9.12427e-08
6.95159e-08
-6.85916e-08
-1.05947e-07
-6.80331e-08
-1.19897e-07
-6.74242e-08
-1.32587e-07
-6.68064e-08
-1.43643e-07
-6.61636e-08
-1.52901e-07
-6.5537e-08
-1.60378e-07
-6.48975e-08
-1.66222e-07
-6.42864e-08
-1.70644e-07
-6.36664e-08
-1.73868e-07
-6.30798e-08
-1.76102e-07
-6.24847e-08
-1.77517e-07
-6.19256e-08
-1.78246e-07
-6.13579e-08
-1.78386e-07
-6.08291e-08
-1.78008e-07
-6.02934e-08
-1.77175e-07
-5.97995e-08
-1.75954e-07
-5.93005e-08
-1.74435e-07
-5.88465e-08
-1.72733e-07
-1.70972e-07
-5.83815e-08
-7.12834e-08
-9.17135e-08
7.1718e-08
-7.07509e-08
-1.06501e-07
-7.01684e-08
-1.20515e-07
-6.95328e-08
-1.33249e-07
-6.8887e-08
-1.44331e-07
-6.82141e-08
-1.53602e-07
-6.75562e-08
-1.61084e-07
-6.68841e-08
-1.66926e-07
-6.62396e-08
-1.71341e-07
-6.55857e-08
-1.74557e-07
-6.49647e-08
-1.76781e-07
-6.43352e-08
-1.78186e-07
-6.37414e-08
-1.78904e-07
-6.31399e-08
-1.79031e-07
-6.25768e-08
-1.7864e-07
-6.20081e-08
-1.77792e-07
-6.14808e-08
-1.76556e-07
-6.09497e-08
-1.7502e-07
-6.0463e-08
-1.733e-07
-1.71523e-07
-5.9967e-08
-7.34838e-08
-9.22063e-08
7.39471e-08
-7.29245e-08
-1.0708e-07
-7.23145e-08
-1.21158e-07
-7.16497e-08
-1.33937e-07
-7.09733e-08
-1.45047e-07
-7.0268e-08
-1.54333e-07
-6.95764e-08
-1.61819e-07
-6.88696e-08
-1.6766e-07
-6.81895e-08
-1.72071e-07
-6.74997e-08
-1.75279e-07
-6.68421e-08
-1.77494e-07
-6.61766e-08
-1.78888e-07
-6.55463e-08
-1.79594e-07
-6.49089e-08
-1.79709e-07
-6.43098e-08
-1.79304e-07
-6.37061e-08
-1.7844e-07
-6.31435e-08
-1.77188e-07
-6.25786e-08
-1.75634e-07
-6.20576e-08
-1.73897e-07
-1.72102e-07
-6.15293e-08
-7.5686e-08
-9.27174e-08
7.61685e-08
-7.5103e-08
-1.07679e-07
-7.44668e-08
-1.21826e-07
-7.37726e-08
-1.34652e-07
-7.30642e-08
-1.45793e-07
-7.2325e-08
-1.55095e-07
-7.15975e-08
-1.62588e-07
-7.08541e-08
-1.68429e-07
-7.0136e-08
-1.72835e-07
-6.94082e-08
-1.76036e-07
-6.87116e-08
-1.78242e-07
-6.80077e-08
-1.79626e-07
-6.73382e-08
-1.8032e-07
-6.66631e-08
-1.80422e-07
-6.60251e-08
-1.80002e-07
-6.53848e-08
-1.79123e-07
-6.47844e-08
-1.77853e-07
-6.41841e-08
-1.76282e-07
-6.36262e-08
-1.74526e-07
-1.72713e-07
-6.30643e-08
-7.79146e-08
-9.32525e-08
7.84289e-08
-7.73014e-08
-1.08306e-07
-7.66332e-08
-1.22522e-07
-7.59058e-08
-1.35397e-07
-7.51621e-08
-1.4657e-07
-7.43862e-08
-1.55889e-07
-7.36202e-08
-1.63391e-07
-7.28377e-08
-1.69232e-07
-7.20789e-08
-1.73635e-07
-7.13107e-08
-1.76829e-07
-7.05726e-08
-1.79026e-07
-6.98281e-08
-1.804e-07
-6.9117e-08
-1.81082e-07
-6.84016e-08
-1.8117e-07
-6.77228e-08
-1.80736e-07
-6.70433e-08
-1.7984e-07
-6.64031e-08
-1.78552e-07
-6.57653e-08
-1.76962e-07
-6.51689e-08
-1.75186e-07
-1.73354e-07
-6.45714e-08
-8.01493e-08
-9.38108e-08
8.06872e-08
-7.95071e-08
-1.08959e-07
-7.88076e-08
-1.23247e-07
-7.8046e-08
-1.36174e-07
-7.72653e-08
-1.47381e-07
-7.64508e-08
-1.5672e-07
-7.56438e-08
-1.64231e-07
-7.48197e-08
-1.70075e-07
-7.40176e-08
-1.74475e-07
-7.32064e-08
-1.77663e-07
-7.24238e-08
-1.79852e-07
-7.1636e-08
-1.81215e-07
-7.08803e-08
-1.81885e-07
-7.01223e-08
-1.81959e-07
-6.93995e-08
-1.81509e-07
-6.86786e-08
-1.80596e-07
-6.79957e-08
-1.7929e-07
-6.73181e-08
-1.7768e-07
-6.66803e-08
-1.75883e-07
-1.74031e-07
-6.60454e-08
-8.2405e-08
-9.43946e-08
8.29763e-08
-8.17306e-08
-1.09641e-07
-8.09959e-08
-1.24004e-07
-8.01971e-08
-1.36985e-07
-7.93763e-08
-1.48228e-07
-7.85202e-08
-1.5759e-07
-7.76691e-08
-1.65112e-07
-7.68004e-08
-1.70959e-07
-7.59518e-08
-1.75356e-07
-7.50947e-08
-1.78539e-07
-7.42648e-08
-1.80719e-07
-7.34308e-08
-1.82072e-07
-7.26279e-08
-1.8273e-07
-7.18241e-08
-1.82789e-07
-7.10549e-08
-1.82323e-07
-7.02895e-08
-1.81392e-07
-6.95616e-08
-1.80066e-07
-6.88416e-08
-1.78434e-07
-6.81606e-08
-1.76617e-07
-1.74742e-07
-6.74857e-08
-8.46648e-08
-9.50023e-08
8.52597e-08
-8.3961e-08
-1.10352e-07
-8.31922e-08
-1.24793e-07
-8.23556e-08
-1.37833e-07
-8.14929e-08
-1.49115e-07
-8.05929e-08
-1.58501e-07
-7.9695e-08
-1.66036e-07
-7.87789e-08
-1.71888e-07
-7.78808e-08
-1.76284e-07
-7.69746e-08
-1.79462e-07
-7.6094e-08
-1.81634e-07
-7.52106e-08
-1.82976e-07
-7.43568e-08
-1.83621e-07
-7.35045e-08
-1.83667e-07
-7.26852e-08
-1.83183e-07
-7.18726e-08
-1.82234e-07
-7.10963e-08
-1.80887e-07
-7.03312e-08
-1.79233e-07
-6.96036e-08
-1.77393e-07
-1.75495e-07
-6.88864e-08
-8.69542e-08
-9.56403e-08
8.75861e-08
-8.62138e-08
-1.11096e-07
-8.54051e-08
-1.2562e-07
-8.45262e-08
-1.3872e-07
-8.36177e-08
-1.50044e-07
-8.26703e-08
-1.59457e-07
-8.1722e-08
-1.67007e-07
-8.07551e-08
-1.72865e-07
-7.98039e-08
-1.77261e-07
-7.88452e-08
-1.80434e-07
-7.79104e-08
-1.82598e-07
-7.69742e-08
-1.8393e-07
-7.60666e-08
-1.84562e-07
-7.51618e-08
-1.84592e-07
-7.42898e-08
-1.84091e-07
-7.34264e-08
-1.83122e-07
-7.2599e-08
-1.81753e-07
-7.17854e-08
-1.80076e-07
-7.10092e-08
-1.78211e-07
-1.76288e-07
-7.02465e-08
-8.92531e-08
-9.63085e-08
8.99139e-08
-8.84773e-08
-1.11875e-07
-8.76286e-08
-1.26485e-07
-8.67059e-08
-1.3965e-07
-8.57492e-08
-1.5102e-07
-8.47514e-08
-1.60462e-07
-8.37495e-08
-1.68029e-07
-8.27281e-08
-1.73895e-07
-8.17203e-08
-1.78293e-07
-8.07053e-08
-1.81461e-07
-7.97126e-08
-1.83618e-07
-7.87197e-08
-1.84939e-07
-7.77541e-08
-1.85558e-07
-7.67937e-08
-1.85572e-07
-7.58645e-08
-1.85053e-07
-7.4947e-08
-1.84063e-07
-7.40645e-08
-1.82671e-07
-7.31994e-08
-1.80969e-07
-7.23705e-08
-1.79078e-07
-1.77129e-07
-7.15594e-08
-9.158e-08
-9.70109e-08
9.228e-08
-9.07641e-08
-1.12693e-07
-8.98704e-08
-1.27393e-07
-8.88995e-08
-1.40627e-07
-8.78904e-08
-1.52046e-07
-8.6838e-08
-1.61521e-07
-8.57783e-08
-1.69107e-07
-8.46984e-08
-1.74982e-07
-8.36297e-08
-1.79381e-07
-8.25542e-08
-1.82547e-07
-8.14996e-08
-1.84696e-07
-8.04459e-08
-1.86006e-07
-7.94186e-08
-1.86612e-07
-7.83979e-08
-1.8661e-07
-7.74085e-08
-1.86071e-07
-7.64326e-08
-1.85059e-07
-7.54918e-08
-1.83642e-07
-7.45711e-08
-1.81915e-07
-7.36869e-08
-1.79996e-07
-1.78018e-07
-7.28239e-08
-9.39188e-08
-9.77456e-08
9.4649e-08
-9.30647e-08
-1.13549e-07
-9.21256e-08
-1.28346e-07
-9.11044e-08
-1.41654e-07
-9.00396e-08
-1.53126e-07
-8.8929e-08
-1.62637e-07
-8.78073e-08
-1.70245e-07
-8.66647e-08
-1.76131e-07
-8.55307e-08
-1.80534e-07
-8.43905e-08
-1.83697e-07
-8.32693e-08
-1.85839e-07
-8.21503e-08
-1.87139e-07
-8.10565e-08
-1.8773e-07
-7.99717e-08
-1.87711e-07
-7.8917e-08
-1.87152e-07
-7.78789e-08
-1.86117e-07
-7.68754e-08
-1.84675e-07
-7.58955e-08
-1.82919e-07
-7.49515e-08
-1.80971e-07
-1.78963e-07
-7.40331e-08
-9.62985e-08
-9.85218e-08
9.70737e-08
-9.53963e-08
-1.14453e-07
-9.44035e-08
-1.29352e-07
-9.33256e-08
-1.42738e-07
-9.21994e-08
-1.54267e-07
-9.10254e-08
-1.63816e-07
-8.98368e-08
-1.71448e-07
-8.86265e-08
-1.77347e-07
-8.74225e-08
-1.81754e-07
-8.62126e-08
-1.84915e-07
-8.50202e-08
-1.87051e-07
-8.38312e-08
-1.88339e-07
-8.26667e-08
-1.88916e-07
-8.15127e-08
-1.88879e-07
-8.03889e-08
-1.883e-07
-7.92837e-08
-1.8724e-07
-7.82136e-08
-1.8577e-07
-7.717e-08
-1.83985e-07
-7.6163e-08
-1.82006e-07
-1.79965e-07
-7.51851e-08
-9.86944e-08
-9.93379e-08
9.9507e-08
-9.77447e-08
-1.15405e-07
-9.6697e-08
-1.30412e-07
-9.55592e-08
-1.43882e-07
-9.43677e-08
-1.55472e-07
-9.31258e-08
-1.65064e-07
-9.18656e-08
-1.72722e-07
-9.05827e-08
-1.78636e-07
-8.93036e-08
-1.83048e-07
-8.80188e-08
-1.86208e-07
-8.675e-08
-1.88338e-07
-8.54859e-08
-1.89615e-07
-8.42452e-08
-1.90178e-07
-8.30173e-08
-1.90122e-07
-8.18189e-08
-1.8952e-07
-8.06422e-08
-1.88434e-07
-7.95004e-08
-1.86936e-07
-7.83887e-08
-1.85119e-07
-7.73138e-08
-1.83107e-07
-1.81031e-07
-7.62725e-08
-1.01126e-07
-1.00201e-07
1.01988e-07
-1.00122e-07
-1.16412e-07
-9.90124e-08
-1.31533e-07
-9.7809e-08
-1.45092e-07
-9.65466e-08
-1.56748e-07
-9.52312e-08
-1.66385e-07
-9.38937e-08
-1.74072e-07
-9.25326e-08
-1.80002e-07
-9.11727e-08
-1.84422e-07
-8.98076e-08
-1.87582e-07
-8.84569e-08
-1.89705e-07
-8.71122e-08
-1.90971e-07
-8.57903e-08
-1.91518e-07
-8.44828e-08
-1.91443e-07
-8.32051e-08
-1.90817e-07
-8.19514e-08
-1.89705e-07
-8.07334e-08
-1.88175e-07
-7.95486e-08
-1.86325e-07
-7.84018e-08
-1.84276e-07
-1.82163e-07
-7.72922e-08
-1.03571e-07
-1.0111e-07
1.04475e-07
-1.02514e-07
-1.17473e-07
-1.01342e-07
-1.32717e-07
-1.0007e-07
-1.46372e-07
-9.87328e-08
-1.58099e-07
-9.73391e-08
-1.67785e-07
-9.5919e-08
-1.75505e-07
-9.44741e-08
-1.81454e-07
-9.30278e-08
-1.85882e-07
-9.15763e-08
-1.89042e-07
-9.01379e-08
-1.91159e-07
-8.87066e-08
-1.92415e-07
-8.72974e-08
-1.92945e-07
-8.59048e-08
-1.9285e-07
-8.45419e-08
-1.922e-07
-8.32058e-08
-1.91058e-07
-8.1906e-08
-1.89496e-07
-8.06429e-08
-1.8761e-07
-7.94187e-08
-1.85523e-07
-1.8337e-07
-7.82363e-08
-1.06055e-07
-1.02073e-07
1.07016e-07
-1.04936e-07
-1.18597e-07
-1.03694e-07
-1.33971e-07
-1.02347e-07
-1.47728e-07
-1.00928e-07
-1.59531e-07
-9.94496e-08
-1.69271e-07
-9.79407e-08
-1.77027e-07
-9.64058e-08
-1.82996e-07
-9.48668e-08
-1.87434e-07
-9.33229e-08
-1.90595e-07
-9.17905e-08
-1.92707e-07
-9.02664e-08
-1.9395e-07
-8.8764e-08
-1.94465e-07
-8.728e-08
-1.94347e-07
-8.58262e-08
-1.93671e-07
-8.44017e-08
-1.92499e-07
-8.30146e-08
-1.90902e-07
-8.16676e-08
-1.88977e-07
-8.03612e-08
-1.86849e-07
-1.84653e-07
-7.91006e-08
-1.08563e-07
-1.03092e-07
1.09575e-07
-1.07379e-07
-1.19787e-07
-1.06063e-07
-1.353e-07
-1.04636e-07
-1.49167e-07
-1.0313e-07
-1.61052e-07
-1.01562e-07
-1.7085e-07
-9.99577e-08
-1.78644e-07
-9.83262e-08
-1.84637e-07
-9.66879e-08
-1.89086e-07
-9.50447e-08
-1.92249e-07
-9.34115e-08
-1.94355e-07
-9.17879e-08
-1.95587e-07
-9.01854e-08
-1.96084e-07
-8.86035e-08
-1.95944e-07
-8.70519e-08
-1.9524e-07
-8.55327e-08
-1.94036e-07
-8.4052e-08
-1.92402e-07
-8.26152e-08
-1.90436e-07
-8.12205e-08
-1.88264e-07
-1.86021e-07
-7.98763e-08
-1.11109e-07
-1.04173e-07
1.12185e-07
-1.09854e-07
-1.21049e-07
-1.08457e-07
-1.3671e-07
-1.06942e-07
-1.50693e-07
-1.05342e-07
-1.62666e-07
-1.03676e-07
-1.72527e-07
-1.0197e-07
-1.80363e-07
-1.00234e-07
-1.86382e-07
-9.84893e-08
-1.90844e-07
-9.67395e-08
-1.9401e-07
-9.49982e-08
-1.96111e-07
-9.32678e-08
-1.97331e-07
-9.15581e-08
-1.9781e-07
-8.98711e-08
-1.97646e-07
-8.82152e-08
-1.96913e-07
-8.65943e-08
-1.95674e-07
-8.50136e-08
-1.94001e-07
-8.34803e-08
-1.91991e-07
-8.19917e-08
-1.89771e-07
-1.87479e-07
-8.05579e-08
-1.1368e-07
-1.05317e-07
1.14815e-07
-1.12352e-07
-1.22387e-07
-1.1087e-07
-1.38207e-07
-1.09263e-07
-1.52315e-07
-1.07562e-07
-1.64382e-07
-1.05791e-07
-1.74311e-07
-1.03975e-07
-1.82193e-07
-1.02128e-07
-1.88241e-07
-1.00268e-07
-1.92718e-07
-9.8404e-08
-1.95888e-07
-9.65468e-08
-1.97984e-07
-9.47015e-08
-1.99191e-07
-9.28768e-08
-1.99651e-07
-9.1077e-08
-1.99462e-07
-8.93089e-08
-1.98698e-07
-8.75791e-08
-1.97422e-07
-8.58911e-08
-1.95707e-07
-8.42546e-08
-1.9365e-07
-8.2665e-08
-1.9138e-07
-1.89033e-07
-8.11353e-08
-1.16299e-07
-1.06533e-07
1.17507e-07
-1.14887e-07
-1.2381e-07
-1.1331e-07
-1.39798e-07
-1.11601e-07
-1.5404e-07
-1.09791e-07
-1.66208e-07
-1.07907e-07
-1.7621e-07
-1.05972e-07
-1.84142e-07
-1.04005e-07
-1.90221e-07
-1.02023e-07
-1.94715e-07
-1.00035e-07
-1.9789e-07
-9.80535e-08
-1.99981e-07
-9.6085e-08
-2.01176e-07
-9.4137e-08
-2.01615e-07
-9.2216e-08
-2.014e-07
-9.0328e-08
-2.00603e-07
-8.84813e-08
-1.99287e-07
-8.66785e-08
-1.97527e-07
-8.49312e-08
-1.9542e-07
-8.32339e-08
-1.93095e-07
-1.9069e-07
-8.16016e-08
-1.18949e-07
-1.07823e-07
1.20228e-07
-1.1745e-07
-1.25322e-07
-1.15772e-07
-1.41491e-07
-1.13955e-07
-1.55875e-07
-1.12028e-07
-1.68152e-07
-1.10022e-07
-1.78233e-07
-1.0796e-07
-1.86219e-07
-1.05864e-07
-1.92333e-07
-1.03749e-07
-1.96845e-07
-1.01629e-07
-2.00026e-07
-9.95138e-08
-2.02112e-07
-9.74129e-08
-2.03294e-07
-9.53323e-08
-2.03713e-07
-9.32813e-08
-2.03469e-07
-9.12642e-08
-2.02637e-07
-8.92922e-08
-2.0128e-07
-8.73661e-08
-1.99471e-07
-8.55002e-08
-1.9731e-07
-8.36873e-08
-1.94927e-07
-1.92459e-07
-8.19449e-08
-1.21643e-07
-1.09198e-07
1.23006e-07
-1.20047e-07
-1.26932e-07
-1.1826e-07
-1.43293e-07
-1.16326e-07
-1.5783e-07
-1.14272e-07
-1.70223e-07
-1.12135e-07
-1.80389e-07
-1.09937e-07
-1.88434e-07
-1.07702e-07
-1.94585e-07
-1.05445e-07
-1.99118e-07
-1.03182e-07
-2.02305e-07
-1.00923e-07
-2.04388e-07
-9.86798e-08
-2.05556e-07
-9.6457e-08
-2.05953e-07
-9.42663e-08
-2.05679e-07
-9.21111e-08
-2.04809e-07
-9.00042e-08
-2.03407e-07
-8.79462e-08
-2.01547e-07
-8.5953e-08
-1.99328e-07
-8.40165e-08
-1.96881e-07
-1.94346e-07
-8.21563e-08
-1.24366e-07
-1.10656e-07
1.2581e-07
-1.22671e-07
-1.28643e-07
-1.20768e-07
-1.45211e-07
-1.1871e-07
-1.59913e-07
-1.16521e-07
-1.72431e-07
-1.14244e-07
-1.82688e-07
-1.11899e-07
-1.90797e-07
-1.09515e-07
-1.96989e-07
-1.07105e-07
-2.01544e-07
-1.0469e-07
-2.04741e-07
-1.02276e-07
-2.06819e-07
-9.98792e-08
-2.07973e-07
-9.75035e-08
-2.08347e-07
-9.51627e-08
-2.08041e-07
-9.28588e-08
-2.07131e-07
-9.06074e-08
-2.05681e-07
-8.84075e-08
-2.03765e-07
-8.62777e-08
-2.01484e-07
-8.42085e-08
-1.98969e-07
-1.96361e-07
-8.2222e-08
-1.2714e-07
-1.12212e-07
1.28681e-07
-1.25333e-07
-1.30469e-07
-1.23305e-07
-1.47256e-07
-1.21111e-07
-1.62132e-07
-1.18777e-07
-1.74785e-07
-1.16348e-07
-1.85141e-07
-1.13845e-07
-1.93319e-07
-1.113e-07
-1.99555e-07
-1.08726e-07
-2.04137e-07
-1.06146e-07
-2.07342e-07
-1.03566e-07
-2.09417e-07