/*--------------------------------*- C++ -*----------------------------------*\
  =========                 |
  \\      /  F ield         | OpenFOAM: The Open Source CFD Toolbox
   \\    /   O peration     | Website:  https://openfoam.org
    \\  /    A nd           | Version:  6
     \\/     M anipulation  |
\*---------------------------------------------------------------------------*/
FoamFile
{
    version     2.0;
    format      ascii;
    class       surfaceScalarField;
    location    "5";
    object      phi;
}
// * * * * * * * * * * * * * * * * * * * * * * * * * * * * * * * * * * * * * //

dimensions      [0 3 -1 0 0 0 0];

internalField   nonuniform List<scalar> 
19400
(
-1.14635e-08
-1.07384e-06
-1.89222e-08
-1.24283e-06
-2.05955e-08
-1.28602e-06
-1.81946e-08
-1.29657e-06
-1.41083e-08
-1.29704e-06
-1.0135e-08
-1.29441e-06
-7.06426e-09
-1.29093e-06
-5.00895e-09
-1.28753e-06
-3.6347e-09
-1.28479e-06
-2.67365e-09
-1.28315e-06
-1.69357e-09
-1.28283e-06
-3.80911e-10
-1.28377e-06
1.68113e-09
-1.28564e-06
4.81734e-09
-1.28782e-06
9.07826e-09
-1.28952e-06
1.38817e-08
-1.28951e-06
1.74214e-08
-1.28526e-06
1.72202e-08
-1.26942e-06
1.08947e-08
-1.21868e-06
-1.04424e-06
-2.7682e-09
-1.07202e-06
-5.19803e-09
-1.24114e-06
-5.95622e-09
-1.28613e-06
-5.66519e-09
-1.29741e-06
-5.07739e-09
-1.29823e-06
-4.07158e-09
-1.29579e-06
-3.05711e-09
-1.2923e-06
-2.10143e-09
-1.28877e-06
-1.22686e-09
-1.2859e-06
-4.99362e-10
-1.28419e-06
3.37734e-10
-1.28388e-06
1.08076e-09
-1.28493e-06
2.04198e-09
-1.28689e-06
2.95807e-09
-1.28918e-06
3.84975e-09
-1.29086e-06
4.59609e-09
-1.29064e-06
4.62075e-09
-1.28585e-06
3.58927e-09
-1.26901e-06
1.31298e-09
-1.21699e-06
-1.04296e-06
-2.66032e-09
-1.06954e-06
-2.80815e-09
-1.24122e-06
-2.95636e-09
-1.28622e-06
-2.9316e-09
-1.29762e-06
-2.70732e-09
-1.29868e-06
-2.20059e-09
-1.29642e-06
-1.62723e-09
-1.29304e-06
-9.33049e-10
-1.28958e-06
-2.06338e-10
-1.28677e-06
5.99938e-10
-1.28512e-06
1.41271e-09
-1.28486e-06
2.32405e-09
-1.28591e-06
3.12636e-09
-1.28787e-06
3.83944e-09
-1.28998e-06
4.17733e-09
-1.29129e-06
3.89824e-09
-1.29045e-06
2.93397e-09
-1.28494e-06
1.72834e-09
-1.26793e-06
1.52982e-09
-1.21693e-06
-1.04143e-06
-2.27715e-09
-1.06717e-06
-3.10575e-09
-1.24039e-06
-4.0054e-09
-1.28526e-06
-4.31861e-09
-1.29728e-06
-4.0511e-09
-1.29893e-06
-3.44776e-09
-1.29701e-06
-2.67948e-09
-1.29382e-06
-1.76951e-09
-1.29049e-06
-7.94069e-10
-1.28779e-06
3.13122e-10
-1.28624e-06
1.44456e-09
-1.28605e-06
2.60297e-09
-1.28712e-06
3.60972e-09
-1.28895e-06
4.38305e-09
-1.29077e-06
4.54223e-09
-1.29154e-06
3.99824e-09
-1.28994e-06
2.8588e-09
-1.28378e-06
1.52108e-09
-1.26652e-06
7.89425e-10
-1.21617e-06
-1.04065e-06
-1.59209e-09
-1.06558e-06
-2.61559e-09
-1.23948e-06
-4.00332e-09
-1.28386e-06
-5.03973e-09
-1.29634e-06
-5.33065e-09
-1.29865e-06
-5.05929e-09
-1.29735e-06
-4.29549e-09
-1.29463e-06
-3.22442e-09
-1.29163e-06
-1.95631e-09
-1.28915e-06
-5.26766e-10
-1.28773e-06
8.57446e-10
-1.28757e-06
2.26739e-09
-1.28853e-06
3.34172e-09
-1.29015e-06
4.13148e-09
-1.29159e-06
4.41254e-09
-1.29189e-06
4.22823e-09
-1.28985e-06
3.56277e-09
-1.28319e-06
2.196e-09
-1.26524e-06
6.58257e-10
-1.21476e-06
-1.04006e-06
-1.54997e-09
-1.06433e-06
-2.05778e-09
-1.23938e-06
-2.64074e-09
-1.28356e-06
-3.70687e-09
-1.2956e-06
-4.5385e-09
-1.29805e-06
-4.8233e-09
-1.29729e-06
-4.5086e-09
-1.29513e-06
-3.73105e-09
-1.29255e-06
-2.7178e-09
-1.29032e-06
-1.54821e-09
-1.289e-06
-4.1487e-10
-1.28883e-06
6.66124e-10
-1.28973e-06
1.60798e-09
-1.29121e-06
2.37412e-09
-1.29248e-06
2.86833e-09
-1.29258e-06
3.16213e-09
-1.29034e-06
3.2279e-09
-1.2835e-06
2.90618e-09
-1.26522e-06
1.48874e-09
-1.21368e-06
-1.03865e-06
-2.50752e-09
-1.06241e-06
-2.42561e-09
-1.24006e-06
-1.41801e-09
-1.28509e-06
-1.27707e-09
-1.29622e-06
-1.7261e-09
-1.29803e-06
-2.18236e-09
-1.29718e-06
-2.42955e-09
-1.29521e-06
-2.34506e-09
-1.29287e-06
-2.08792e-09
-1.29082e-06
-1.67785e-09
-1.28959e-06
-1.28403e-09
-1.28944e-06
-8.52378e-10
-1.29031e-06
-4.82363e-10
-1.29176e-06
-1.40347e-10
-1.29301e-06
1.87999e-10
-1.29309e-06
5.13122e-10
-1.2909e-06
9.9429e-10
-1.2843e-06
1.65445e-09
-1.26625e-06
1.21094e-09
-1.21361e-06
-1.03749e-06
-2.60825e-09
-1.06013e-06
-1.74878e-09
-1.24122e-06
-7.79976e-10
-1.28636e-06
-3.72067e-10
-1.29688e-06
-3.40661e-10
-1.29832e-06
-4.79508e-10
-1.29721e-06
-7.48261e-10
-1.29514e-06
-9.28988e-10
-1.2928e-06
-1.1226e-09
-1.2908e-06
-1.20798e-09
-1.28959e-06
-1.31595e-09
-1.28946e-06
-1.41948e-09
-1.29034e-06
-1.52846e-09
-1.29178e-06
-1.59135e-09
-1.29309e-06
-1.4909e-09
-1.29339e-06
-1.02015e-09
-1.29156e-06
-1.64835e-10
-1.28536e-06
8.44243e-10
-1.26751e-06
1.34568e-09
-1.21435e-06
-1.03616e-06
-8.92992e-10
-1.05919e-06
-2.64228e-10
-1.24184e-06
-8.35761e-10
-1.28575e-06
-1.51111e-09
-1.29623e-06
-1.73393e-09
-1.2981e-06
-1.69179e-09
-1.2973e-06
-1.52283e-09
-1.29536e-06
-1.33821e-09
-1.29303e-06
-1.23786e-09
-1.29096e-06
-1.20486e-09
-1.28968e-06
-1.29221e-09
-1.28948e-06
-1.38597e-09
-1.29028e-06
-1.58033e-09
-1.29169e-06
-1.72724e-09
-1.29303e-06
-1.76087e-09
-1.29345e-06
-1.60363e-09
-1.29186e-06
-1.06033e-09
-1.28603e-06
-4.48503e-12
-1.26865e-06
1.31837e-09
-1.2157e-06
-1.03481e-06
-8.61333e-12
-1.05917e-06
-7.43017e-10
-1.24113e-06
-1.42225e-09
-1.28505e-06
-1.88481e-09
-1.2958e-06
-2.04628e-09
-1.29794e-06
-1.95789e-09
-1.29742e-06
-1.6483e-09
-1.29568e-06
-1.26341e-09
-1.29345e-06
-8.88134e-10
-1.29136e-06
-5.82997e-10
-1.29001e-06
-3.80268e-10
-1.2897e-06
-3.08455e-10
-1.29041e-06
-3.12531e-10
-1.29175e-06
-3.208e-10
-1.29307e-06
-4.28508e-10
-1.29348e-06
-5.36326e-10
-1.29181e-06
-6.3601e-10
-1.28596e-06
-1.74251e-10
-1.26899e-06
1.15245e-09
-1.21687e-06
-1.03363e-06
2.83718e-10
-1.05967e-06
-1.09883e-09
-1.23996e-06
-9.93784e-10
-1.28534e-06
-6.00137e-10
-1.29635e-06
-3.87817e-10
-1.29828e-06
-2.89762e-10
-1.29763e-06
-1.79261e-10
-1.29589e-06
4.55983e-11
-1.29373e-06
3.50393e-10
-1.29175e-06
7.70703e-10
-1.29046e-06
1.148e-09
-1.29017e-06
1.61363e-09
-1.29085e-06
1.92694e-09
-1.29213e-06
2.16936e-09
-1.2933e-06
2.14939e-09
-1.29345e-06
1.69211e-09
-1.29139e-06
7.94652e-10
-1.28499e-06
-1.17902e-10
-1.26791e-06
4.58264e-10
-1.2173e-06
-1.03317e-06
-1.91139e-10
-1.05972e-06
-7.147e-10
-1.23964e-06
-5.34403e-10
-1.28571e-06
-1.36676e-10
-1.29689e-06
1.3067e-10
-1.29869e-06
2.75596e-10
-1.29786e-06
3.31375e-10
-1.29604e-06
4.50926e-10
-1.2939e-06
6.24826e-10
-1.292e-06
9.3963e-10
-1.2908e-06
1.34658e-09
-1.29061e-06
1.79553e-09
-1.29134e-06
2.20957e-09
-1.29256e-06
2.39984e-09
-1.29353e-06
2.20971e-09
-1.29335e-06
1.61757e-09
-1.29089e-06
7.16394e-10
-1.28415e-06
-2.98062e-10
-1.26694e-06
-1.0059e-09
-1.21664e-06
-1.03421e-06
-1.52933e-10
-1.05973e-06
7.81308e-11
-1.24006e-06
-7.01602e-11
-1.28569e-06
-2.20727e-10
-1.29688e-06
-3.54455e-10
-1.29866e-06
-4.87822e-10
-1.29784e-06
-5.51851e-10
-1.29605e-06
-6.04232e-10
-1.29395e-06
-5.80802e-10
-1.29208e-06
-5.45379e-10
-1.29094e-06
-4.44625e-10
-1.29078e-06
-3.48497e-10
-1.29151e-06
-2.6215e-10
-1.29271e-06
-2.65977e-10
-1.29364e-06
-2.42231e-10
-1.29345e-06
-1.74754e-10
-1.29111e-06
1.20887e-10
-1.28463e-06
3.39435e-10
-1.26732e-06
-9.82059e-10
-1.21547e-06
-1.0352e-06
3.73507e-13
-1.05982e-06
2.4051e-10
-1.24039e-06
-3.96722e-10
-1.28513e-06
-1.09459e-09
-1.29625e-06
-1.64351e-09
-1.29815e-06
-2.00085e-09
-1.29753e-06
-2.14706e-09
-1.29593e-06
-2.22015e-09
-1.29392e-06
-2.21974e-09
-1.2921e-06
-2.24578e-09
-1.29096e-06
-2.22318e-09
-1.29079e-06
-2.32695e-09
-1.29152e-06
-2.30616e-09
-1.29274e-06
-2.26903e-09
-1.2938e-06
-1.97874e-09
-1.29384e-06
-1.40567e-09
-1.29179e-06
-6.02424e-10
-1.28551e-06
-4.78391e-11
-1.26794e-06
-6.4477e-10
-1.21492e-06
-1.03584e-06
-1.00501e-09
-1.05886e-06
-1.16698e-09
-1.24035e-06
-1.76789e-09
-1.28455e-06
-2.7679e-09
-1.29535e-06
-3.40944e-09
-1.29752e-06
-3.70517e-09
-1.29731e-06
-3.68128e-09
-1.29597e-06
-3.59715e-09
-1.29407e-06
-3.44261e-09
-1.29227e-06
-3.33835e-09
-1.29113e-06
-3.22325e-09
-1.29095e-06
-3.12223e-09
-1.29166e-06
-3.0067e-09
-1.2929e-06
-2.87158e-09
-1.29401e-06
-2.59526e-09
-1.29412e-06
-2.25448e-09
-1.2922e-06
-1.73199e-09
-1.28604e-06
-1.19612e-09
-1.26844e-06
-8.08547e-10
-1.21525e-06
-1.03663e-06
-1.02552e-09
-1.05787e-06
-2.09538e-09
-1.23931e-06
-2.1191e-09
-1.28455e-06
-2.51267e-09
-1.29501e-06
-2.95944e-09
-1.29711e-06
-3.31777e-09
-1.297e-06
-3.49683e-09
-1.29581e-06
-3.56435e-09
-1.29404e-06
-3.512e-09
-1.29233e-06
-3.42749e-09
-1.29125e-06
-3.23652e-09
-1.29112e-06
-3.07481e-09
-1.29191e-06
-2.78039e-09
-1.29322e-06
-2.47529e-09
-1.29438e-06
-2.16499e-09
-1.29454e-06
-1.80301e-09
-1.29263e-06
-1.32402e-09
-1.28654e-06
-7.17298e-10
-1.26899e-06
-5.43848e-11
-1.21586e-06
-1.03668e-06
-1.40778e-09
-1.05638e-06
-2.33274e-09
-1.23838e-06
-1.98116e-09
-1.28484e-06
-1.73355e-09
-1.2953e-06
-1.72921e-09
-1.29709e-06
-2.03412e-09
-1.29676e-06
-2.32184e-09
-1.29553e-06
-2.56225e-09
-1.29386e-06
-2.64195e-09
-1.29228e-06
-2.6677e-09
-1.29129e-06
-2.61492e-09
-1.29124e-06
-2.44068e-09
-1.2921e-06
-2.18188e-09
-1.29354e-06
-1.78888e-09
-1.29484e-06
-1.32111e-09
-1.29504e-06
-1.03082e-09
-1.29305e-06
-8.28158e-10
-1.2868e-06
-5.60962e-10
-1.26929e-06
6.29208e-11
-1.21647e-06
-1.03661e-06
-1.57296e-09
-1.05474e-06
-9.44666e-10
-1.239e-06
-5.18571e-10
-1.28521e-06
-5.61993e-10
-1.29529e-06
-7.03831e-10
-1.29693e-06
-9.63091e-10
-1.29656e-06
-1.12233e-09
-1.29536e-06
-1.30054e-09
-1.29374e-06
-1.36236e-09
-1.2922e-06
-1.45681e-09
-1.29124e-06
-1.47698e-09
-1.29118e-06
-1.63732e-09
-1.29203e-06
-1.76043e-09
-1.29342e-06
-1.96683e-09
-1.29471e-06
-2.165e-09
-1.29497e-06
-2.23572e-09
-1.29305e-06
-2.09802e-09
-1.28703e-06
-1.26333e-09
-1.27011e-06
-3.44548e-11
-1.21764e-06
-1.03662e-06
-1.04296e-09
-1.05373e-06
-2.85801e-10
-1.23982e-06
1.60466e-10
-1.28569e-06
2.08805e-10
-1.29543e-06
2.16304e-10
-1.29696e-06
1.33414e-10
-1.29658e-06
1.30394e-10
-1.29537e-06
4.9336e-11
-1.29375e-06
3.94086e-11
-1.2922e-06
-3.83806e-11
-1.29124e-06
-1.11887e-10
-1.29114e-06
-2.79668e-10
-1.29187e-06
-5.87269e-10
-1.29311e-06
-1.05799e-09
-1.29425e-06
-1.44165e-09
-1.29453e-06
-1.61901e-09
-1.2929e-06
-1.34524e-09
-1.28725e-06
-5.54956e-10
-1.27076e-06
9.61095e-10
-1.21904e-06
-1.03566e-06
2.0887e-10
-1.05405e-06
-3.84232e-10
-1.23934e-06
-2.51138e-10
-1.2859e-06
2.64346e-10
-1.29605e-06
7.70345e-10
-1.29753e-06
1.03002e-09
-1.29692e-06
1.12519e-09
-1.29551e-06
1.06922e-09
-1.29374e-06
9.85837e-10
-1.29215e-06
8.99627e-10
-1.29119e-06
9.23023e-10
-1.29116e-06
9.67891e-10
-1.292e-06
1.1863e-09
-1.29332e-06
1.33596e-09
-1.29448e-06
1.40303e-09
-1.29466e-06
1.1717e-09
-1.29276e-06
6.41845e-10
-1.28672e-06
-2.32869e-10
-1.2699e-06
9.6561e-12
-1.21936e-06
-1.03571e-06
2.747e-10
-1.05457e-06
1.6928e-10
-1.23949e-06
5.85149e-10
-1.2865e-06
1.21311e-09
-1.2969e-06
1.8353e-09
-1.29828e-06
2.11438e-09
-1.29739e-06
2.17263e-09
-1.29567e-06
1.91086e-09
-1.29365e-06
1.58219e-09
-1.2919e-06
1.16647e-09
-1.29093e-06
8.71304e-10
-1.29098e-06
7.45822e-10
-1.292e-06
8.56707e-10
-1.29356e-06
1.06521e-09
-1.29487e-06
1.2333e-09
-1.29496e-06
9.6163e-10
-1.29273e-06
2.76554e-10
-1.28628e-06
-7.96046e-10
-1.26915e-06
-1.79026e-09
-1.21869e-06
-1.03757e-06
-1.90412e-10
-1.05463e-06
1.05254e-09
-1.24095e-06
1.96188e-09
-1.2876e-06
2.57733e-09
-1.29768e-06
3.00155e-09
-1.29881e-06
3.07856e-09
-1.29761e-06
2.90474e-09
-1.29554e-06
2.37118e-09
-1.29324e-06
1.73709e-09
-1.2913e-06
9.19865e-10
-1.29023e-06
2.12502e-10
-1.29029e-06
-5.73043e-10
-1.2914e-06
-1.09299e-09
-1.2931e-06
-1.53004e-09
-1.29461e-06
-1.75545e-09
-1.29494e-06
-1.68337e-09
-1.29296e-06
-1.44743e-09
-1.28678e-06
-1.15626e-09
-1.26972e-06
-1.75689e-09
-1.21835e-06
-1.03934e-06
8.16071e-11
-1.05485e-06
8.79028e-10
-1.2419e-06
1.37708e-09
-1.28819e-06
2.02414e-09
-1.29842e-06
2.63084e-09
-1.29944e-06
2.82078e-09
-1.29786e-06
2.64939e-09
-1.29537e-06
2.07241e-09
-1.29273e-06
1.34212e-09
-1.29056e-06
4.12981e-10
-1.28939e-06
-4.65533e-10
-1.28943e-06
-1.29178e-09
-1.29062e-06
-1.93712e-09
-1.29249e-06
-2.36295e-09
-1.29426e-06
-2.32974e-09
-1.29496e-06
-1.93192e-09
-1.29342e-06
-1.3864e-09
-1.28735e-06
-1.16537e-09
-1.26999e-06
-1.45663e-09
-1.21811e-06
-1.04078e-06
4.75423e-10
-1.05539e-06
7.09203e-11
-1.24157e-06
-2.48891e-11
-1.28808e-06
6.57897e-10
-1.29911e-06
1.41942e-09
-1.30015e-06
1.74176e-09
-1.29816e-06
1.65807e-09
-1.29522e-06
1.19504e-09
-1.29225e-06
5.56785e-10
-1.28988e-06
-2.1655e-10
-1.2886e-06
-9.24095e-10
-1.28867e-06
-1.59603e-09
-1.28999e-06
-2.00782e-09
-1.29209e-06
-2.07253e-09
-1.29422e-06
-1.73721e-09
-1.29536e-06
-1.08458e-09
-1.29408e-06
-6.15038e-10
-1.28777e-06
-7.63403e-10
-1.26979e-06
-1.30985e-09
-1.2175e-06
-1.04208e-06
6.6231e-10
-1.0561e-06
1.07267e-09
-1.24207e-06
1.25244e-09
-1.28827e-06
1.11021e-09
-1.29898e-06
7.68911e-10
-1.29976e-06
3.65466e-10
-1.29776e-06
8.47905e-11
-1.29489e-06
-2.16827e-10
-1.29197e-06
-4.34747e-10
-1.28962e-06
-7.36343e-10
-1.28834e-06
-1.03577e-09
-1.28839e-06
-1.35011e-09
-1.28967e-06
-1.69402e-09
-1.29181e-06
-1.89958e-09
-1.29404e-06
-1.91917e-09
-1.29536e-06
-1.67344e-09
-1.29437e-06
-1.09667e-09
-1.28837e-06
-5.47866e-10
-1.2703e-06
-5.50504e-10
-1.21744e-06
-1.04263e-06
8.20188e-10
-1.05695e-06
1.56475e-09
-1.24287e-06
9.51684e-10
-1.28765e-06
-3.53592e-10
-1.29769e-06
-1.45527e-09
-1.29863e-06
-2.06082e-09
-1.29714e-06
-2.11685e-09
-1.29479e-06
-1.85301e-09
-1.29223e-06
-1.34216e-09
-1.29009e-06
-8.13199e-10
-1.28888e-06
-2.61759e-10
-1.28889e-06
8.57969e-11
-1.29009e-06
3.07267e-10
-1.29205e-06
2.89465e-10
-1.29406e-06
-2.77983e-11
-1.29515e-06
-3.89671e-10
-1.29403e-06
-6.13346e-10
-1.28818e-06
-6.82863e-10
-1.27021e-06
-5.02358e-10
-1.2176e-06
-1.04314e-06
3.54136e-10
-1.05737e-06
-4.7824e-10
-1.24218e-06
-2.06654e-09
-1.28612e-06
-3.18878e-09
-1.29669e-06
-3.46e-09
-1.2984e-06
-3.29385e-09
-1.29741e-06
-2.74686e-09
-1.29538e-06
-2.00176e-09
-1.29306e-06
-1.07465e-09
-1.29106e-06
-1.01807e-10
-1.28993e-06
8.5166e-10
-1.28993e-06
1.77689e-09
-1.29102e-06
2.49063e-09
-1.29282e-06
2.98013e-09
-1.29456e-06
3.11605e-09
-1.29529e-06
2.75675e-09
-1.29373e-06
1.90318e-09
-1.28738e-06
8.89678e-10
-1.26924e-06
3.79467e-10
-1.21718e-06
-1.0428e-06
-3.5729e-10
-1.05707e-06
-1.8909e-09
-1.24075e-06
-2.51501e-09
-1.28555e-06
-2.76971e-09
-1.29654e-06
-2.61364e-09
-1.29863e-06
-2.20878e-09
-1.2979e-06
-1.57618e-09
-1.29607e-06
-8.27595e-10
-1.29387e-06
4.79101e-12
-1.29194e-06
8.88378e-10
-1.29085e-06
1.82704e-09
-1.29087e-06
2.67265e-09
-1.29195e-06
3.47669e-09
-1.29361e-06
4.01666e-09
-1.29516e-06
4.28708e-09
-1.29565e-06
4.25782e-09
-1.29379e-06
3.91348e-09
-1.28715e-06
3.36011e-09
-1.26887e-06
2.42428e-09
-1.21647e-06
-1.04044e-06
1.07659e-10
-1.05725e-06
-9.66101e-10
-1.23981e-06
-5.72785e-10
-1.28603e-06
-3.66588e-10
-1.2969e-06
-3.27849e-10
-1.29876e-06
-2.78879e-10
-1.2981e-06
-2.35929e-11
-1.29641e-06
3.21345e-10
-1.29434e-06
7.88009e-10
-1.29249e-06
1.28479e-09
-1.29145e-06
1.82552e-09
-1.29151e-06
2.4214e-09
-1.29257e-06
2.97448e-09
-1.29421e-06
3.37139e-09
-1.29562e-06
3.59417e-09
-1.29589e-06
3.53523e-09
-1.29386e-06
3.42197e-09
-1.2872e-06
3.29673e-09
-1.269e-06
2.51377e-09
-1.21597e-06
-1.03797e-06
4.36399e-10
-1.05768e-06
1.13945e-10
-1.23952e-06
5.20695e-10
-1.28642e-06
1.08366e-09
-1.29752e-06
1.49512e-09
-1.29918e-06
1.60037e-09
-1.29827e-06
1.59747e-09
-1.29642e-06
1.49219e-09
-1.29429e-06
1.44567e-09
-1.29245e-06
1.39035e-09
-1.29144e-06
1.41533e-09
-1.29151e-06
1.37087e-09
-1.29261e-06
1.47784e-09
-1.29426e-06
1.52663e-09
-1.29572e-06
1.58294e-09
-1.29601e-06
1.7144e-09
-1.29403e-06
2.0304e-09
-1.28765e-06
2.60192e-09
-1.26974e-06
2.4974e-09
-1.21604e-06
-1.03547e-06
6.79314e-10
-1.05834e-06
6.27135e-10
-1.23945e-06
1.03598e-09
-1.28681e-06
1.70589e-09
-1.29819e-06
2.27028e-09
-1.29973e-06
2.51402e-09
-1.29854e-06
2.52379e-09
-1.29643e-06
2.32354e-09
-1.29411e-06
2.05663e-09
-1.29218e-06
1.70283e-09
-1.2911e-06
1.32031e-09
-1.29113e-06
9.40966e-10
-1.29219e-06
5.93322e-10
-1.29387e-06
2.6991e-10
-1.2954e-06
2.48722e-10
-1.29588e-06
4.76977e-10
-1.29428e-06
1.23076e-09
-1.28836e-06
2.30957e-09
-1.27079e-06
3.06112e-09
-1.21671e-06
-1.03234e-06
9.10605e-10
-1.05926e-06
7.51055e-10
-1.23924e-06
7.6773e-10
-1.28682e-06
1.24675e-09
-1.29861e-06
1.72629e-09
-1.30017e-06
2.12976e-09
-1.29889e-06
2.37814e-09
-1.29663e-06
2.46657e-09
-1.29415e-06
2.38439e-09
-1.29205e-06
2.15345e-09
-1.29081e-06
1.835e-09
-1.29073e-06
1.39468e-09
-1.29174e-06
9.78147e-10
-1.29337e-06
5.58599e-10
-1.29493e-06
2.48002e-10
-1.29553e-06
1.23934e-10
-1.29407e-06
2.97389e-10
-1.28838e-06
1.0056e-09
-1.27121e-06
2.25042e-09
-1.21762e-06
-1.03001e-06
1.10467e-09
-1.06042e-06
6.47352e-10
-1.23885e-06
2.02462e-10
-1.28639e-06
3.54385e-10
-1.29877e-06
8.52328e-10
-1.30066e-06
1.48369e-09
-1.2995e-06
2.07573e-09
-1.2972e-06
2.53907e-09
-1.29458e-06
2.79544e-09
-1.29228e-06
2.88828e-09
-1.29086e-06
2.782e-09
-1.29061e-06
2.64361e-09
-1.29148e-06
2.36176e-09
-1.29303e-06
2.11688e-09
-1.29455e-06
1.86762e-09
-1.29511e-06
1.44587e-09
-1.2935e-06
9.45496e-10
-1.28762e-06
8.35053e-10
-1.2707e-06
1.74507e-09
-1.21811e-06
-1.02821e-06
-5.15108e-10
-1.05993e-06
4.68399e-11
-1.23936e-06
5.64827e-10
-1.28691e-06
1.02282e-09
-1.29913e-06
1.44078e-09
-1.30106e-06
1.96301e-09
-1.29991e-06
2.37502e-09
-1.29759e-06
2.8258e-09
-1.29493e-06
3.19682e-09
-1.29261e-06
3.60873e-09
-1.29116e-06
3.96047e-09
-1.29089e-06
4.23976e-09
-1.2917e-06
4.45011e-09
-1.29317e-06
4.5213e-09
-1.29456e-06
4.34509e-09
-1.2949e-06
3.77224e-09
-1.29286e-06
2.66505e-09
-1.28635e-06
1.38932e-09
-1.26921e-06
1.16474e-09
-1.21769e-06
-1.02706e-06
-1.50576e-09
-1.05822e-06
-7.25216e-10
-1.23996e-06
-9.45512e-11
-1.28738e-06
2.92112e-10
-1.29938e-06
6.22967e-10
-1.30127e-06
8.83114e-10
-1.30009e-06
1.15352e-09
-1.29779e-06
1.50149e-09
-1.29524e-06
2.0008e-09
-1.29308e-06
2.6011e-09
-1.29177e-06
3.25236e-09
-1.29157e-06
3.93534e-09
-1.29235e-06
4.42307e-09
-1.29371e-06
4.65348e-09
-1.29481e-06
4.47184e-09
-1.29472e-06
3.78486e-09
-1.29224e-06
2.70914e-09
-1.28534e-06
1.31927e-09
-1.26793e-06
-3.56456e-10
-1.21613e-06
-1.02745e-06
-1.00594e-09
-1.05703e-06
-8.98775e-10
-1.23998e-06
-1.65658e-09
-1.28645e-06
-2.48024e-09
-1.29848e-06
-2.7849e-09
-1.30083e-06
-2.70991e-09
-1.30011e-06
-2.23585e-09
-1.29817e-06
-1.61389e-09
-1.29585e-06
-8.53964e-10
-1.29378e-06
-1.16172e-10
-1.2925e-06
6.78235e-10
-1.29228e-06
1.28403e-09
-1.29304e-06
1.85811e-09
-1.29426e-06
2.17545e-09
-1.29519e-06
2.22771e-09
-1.29487e-06
2.18866e-09
-1.29222e-06
2.03356e-09
-1.28532e-06
1.41653e-09
-1.26748e-06
-9.75286e-10
-1.2139e-06
-1.02844e-06
-4.82308e-10
-1.05667e-06
-9.10331e-10
-1.23972e-06
-1.90794e-09
-1.28556e-06
-3.13233e-09
-1.2974e-06
-3.91742e-09
-1.30014e-06
-4.09337e-09
-1.30002e-06
-3.75725e-09
-1.29857e-06
-3.18092e-09
-1.29647e-06
-2.51745e-09
-1.29447e-06
-1.87491e-09
-1.29319e-06
-1.27633e-09
-1.29291e-06
-7.24932e-10
-1.29358e-06
-2.38496e-10
-1.29474e-06
1.97892e-10
-1.29563e-06
7.14379e-10
-1.2953e-06
1.17164e-09
-1.29266e-06
1.47425e-09
-1.2856e-06
1.13529e-09
-1.26716e-06
-3.52313e-10
-1.21244e-06
-1.02878e-06
-1.23561e-09
-1.05556e-06
-1.78895e-09
-1.23925e-06
-1.76012e-09
-1.28573e-06
-1.903e-09
-1.29733e-06
-2.23693e-09
-1.29993e-06
-2.43253e-09
-1.29986e-06
-2.5306e-09
-1.29855e-06
-2.40919e-09
-1.29658e-06
-2.22873e-09
-1.29469e-06
-1.94609e-09
-1.29344e-06
-1.64688e-09
-1.29318e-06
-1.37906e-09
-1.29386e-06
-1.06053e-09
-1.29502e-06
-7.3624e-10
-1.29594e-06
-3.63893e-10
-1.29566e-06
4.40701e-11
-1.29301e-06
3.04054e-10
-1.28578e-06
2.02107e-10
-1.26699e-06
-1.5794e-10
-1.21202e-06
-1.02892e-06
-1.39516e-09
-1.05408e-06
-1.55469e-09
-1.23905e-06
-1.37837e-09
-1.28587e-06
-1.13791e-09
-1.29757e-06
-1.04848e-09
-1.30002e-06
-1.17639e-09
-1.29974e-06
-1.43822e-09
-1.2983e-06
-1.65243e-09
-1.29637e-06
-1.79977e-09
-1.29455e-06
-1.85494e-09
-1.29338e-06
-1.89847e-09
-1.29318e-06
-1.79918e-09
-1.2939e-06
-1.71314e-09
-1.29512e-06
-1.52471e-09
-1.29609e-06
-1.23761e-09
-1.29587e-06
-9.1663e-10
-1.2933e-06
-5.16169e-10
-1.28612e-06
-1.3781e-10
-1.26731e-06
2.66028e-10
-1.21234e-06
-1.02864e-06
-1.93381e-10
-1.05366e-06
-3.67119e-10
-1.23867e-06
-5.47323e-10
-1.2855e-06
-6.55342e-10
-1.29731e-06
-7.83696e-10
-1.29976e-06
-1.01273e-09
-1.2994e-06
-1.29919e-09
-1.29792e-06
-1.58229e-09
-1.296e-06
-1.82151e-09
-1.29425e-06
-1.96636e-09
-1.29316e-06
-2.02163e-09
-1.29305e-06
-2.0385e-09
-1.29387e-06
-1.94908e-09
-1.29516e-06
-1.76152e-09
-1.29623e-06
-1.47751e-09
-1.29616e-06
-9.80933e-10
-1.29372e-06
-4.2321e-10
-1.28663e-06
1.64211e-10
-1.2678e-06
7.24787e-10
-1.21279e-06
-1.02789e-06
4.8354e-10
-1.05383e-06
2.32913e-10
-1.23818e-06
-4.33888e-10
-1.28457e-06
-9.91306e-10
-1.29659e-06
-1.31833e-09
-1.29924e-06
-1.57651e-09
-1.29905e-06
-1.70723e-09
-1.29767e-06
-1.84656e-09
-1.29581e-06
-1.9214e-09
-1.29411e-06
-1.9646e-09
-1.29309e-06
-1.95874e-09
-1.29305e-06
-1.8155e-09
-1.29393e-06
-1.6272e-09
-1.29533e-06
-1.24559e-09
-1.29652e-06
-6.89632e-10
-1.2966e-06
1.442e-11
-1.29431e-06
6.62548e-10
-1.28716e-06
9.57257e-10
-1.26799e-06
9.62555e-10
-1.21275e-06
-1.02696e-06
8.63313e-10
-1.0545e-06
4.11097e-10
-1.23764e-06
-7.58515e-10
-1.28324e-06
-1.65835e-09
-1.29564e-06
-2.01666e-09
-1.29878e-06
-2.08358e-09
-1.29894e-06
-1.95475e-09
-1.29774e-06
-1.8209e-09
-1.2959e-06
-1.72222e-09
-1.29416e-06
-1.64154e-09
-1.29311e-06
-1.54608e-09
-1.29309e-06
-1.40769e-09
-1.29405e-06
-1.11356e-09
-1.29559e-06
-6.62006e-10
-1.29694e-06
-1.51625e-10
-1.29712e-06
3.60356e-10
-1.29482e-06
7.11934e-10
-1.28752e-06
6.89195e-10
-1.26811e-06
4.80537e-10
-1.21273e-06
-1.02654e-06
5.72202e-10
-1.0552e-06
3.64098e-10
-1.23756e-06
1.55119e-10
-1.28317e-06
-1.76653e-10
-1.29544e-06
-4.01895e-10
-1.29866e-06
-5.11168e-10
-1.29894e-06
-5.20523e-10
-1.2978e-06
-5.32754e-10
-1.29599e-06
-5.32409e-10
-1.29422e-06
-6.24639e-10
-1.29311e-06
-7.75114e-10
-1.29302e-06
-9.52972e-10
-1.29391e-06
-1.19244e-09
-1.29543e-06
-1.38783e-09
-1.29681e-06
-1.55849e-09
-1.29702e-06
-1.67483e-09
-1.29481e-06
-1.51533e-09
-1.28791e-06
-6.96249e-10
-1.26924e-06
2.59032e-10
-1.21397e-06
-1.02631e-06
4.04005e-10
-1.05575e-06
3.54519e-10
-1.23759e-06
8.65842e-10
-1.28381e-06
1.42531e-09
-1.29608e-06
1.68395e-09
-1.29902e-06
1.68759e-09
-1.29901e-06
1.52402e-09
-1.29769e-06
1.32098e-09
-1.29582e-06
1.13567e-09
-1.29406e-06
9.37746e-10
-1.29295e-06
7.2244e-10
-1.2928e-06
3.54299e-10
-1.29362e-06
-1.13764e-10
-1.29499e-06
-6.80765e-10
-1.29627e-06
-1.29108e-09
-1.2965e-06
-1.63492e-09
-1.29443e-06
-1.67059e-09
-1.28795e-06
-9.83133e-10
-1.27e-06
7.17048e-11
-1.21507e-06
-1.0262e-06
1.53687e-09
-1.05737e-06
1.22504e-09
-1.2373e-06
1.42541e-09
-1.28409e-06
1.93417e-09
-1.2966e-06
2.25199e-09
-1.29939e-06
2.40245e-09
-1.29916e-06
2.36032e-09
-1.29768e-06
2.28883e-09
-1.29573e-06
2.17892e-09
-1.29396e-06
2.17244e-09
-1.2929e-06
2.14936e-09
-1.2928e-06
2.25283e-09
-1.29361e-06
2.22286e-09
-1.29495e-06
2.1776e-09
-1.2961e-06
1.99554e-09
-1.29617e-06
1.68426e-09
-1.29395e-06
1.1214e-09
-1.28718e-06
2.30283e-10
-1.2689e-06
-1.00521e-10
-1.21458e-06
-1.02628e-06
1.83092e-09
-1.05922e-06
1.44944e-09
-1.23682e-06
1.06288e-09
-1.28371e-06
1.02808e-09
-1.29644e-06
1.08136e-09
-1.29942e-06
1.3209e-09
-1.29928e-06
1.48379e-09
-1.29781e-06
1.70276e-09
-1.29584e-06
1.86263e-09
-1.29409e-06
2.14224e-09
-1.29306e-06
2.43752e-09
-1.29303e-06
2.82158e-09
-1.29392e-06
3.20626e-09
-1.29527e-06
3.51543e-09
-1.29631e-06
3.53874e-09
-1.29613e-06
3.2333e-09
-1.29353e-06
2.40307e-09
-1.28619e-06
8.95413e-10
-1.26729e-06
-1.42058e-10
-1.2135e-06
-1.02646e-06
1.25992e-09
-1.06045e-06
3.6297e-11
-1.23555e-06
-1.03885e-09
-1.28258e-06
-1.27914e-09
-1.29613e-06
-1.08203e-09
-1.29956e-06
-7.22555e-10
-1.29957e-06
-3.54985e-10
-1.29813e-06
1.15936e-11
-1.29616e-06
3.45826e-10
-1.29441e-06
7.23201e-10
-1.29341e-06
1.09611e-09
-1.29343e-06
1.59932e-09
-1.29436e-06
2.03421e-09
-1.29571e-06
2.3628e-09
-1.29661e-06
2.39417e-09
-1.29613e-06
2.02483e-09
-1.29317e-06
1.33073e-09
-1.28557e-06
4.18056e-10
-1.26654e-06
-6.07146e-10
-1.21265e-06
-1.0271e-06
-4.78947e-10
-1.05997e-06
-1.45989e-09
-1.23453e-06
-2.52194e-09
-1.2815e-06
-2.73362e-09
-1.29585e-06
-2.44393e-09
-1.29981e-06
-2.03019e-09
-1.29993e-06
-1.67923e-09
-1.29845e-06
-1.39502e-09
-1.2964e-06
-1.20788e-09
-1.29456e-06
-1.06954e-09
-1.29351e-06
-9.35293e-10
-1.29351e-06
-8.299e-10
-1.29446e-06
-6.68409e-10
-1.2958e-06
-5.34274e-10
-1.29672e-06
-3.95082e-10
-1.29627e-06
-1.74959e-10
-1.29336e-06
1.32658e-10
-1.28597e-06
5.46998e-10
-1.26711e-06
2.11224e-10
-1.21248e-06
-1.02689e-06
-1.81536e-09
-1.05818e-06
-2.03067e-09
-1.2343e-06
-2.3199e-09
-1.28123e-06
-2.44025e-09
-1.2957e-06
-2.37002e-09
-1.29989e-06
-2.1494e-09
-1.30011e-06
-2.00299e-09
-1.2986e-06
-1.89833e-09
-1.29646e-06
-1.95203e-09
-1.2945e-06
-2.09952e-09
-1.29332e-06
-2.39329e-09
-1.29321e-06
-2.65187e-09
-1.2941e-06
-2.88932e-09
-1.29549e-06
-2.92495e-09
-1.29658e-06
-2.59671e-09
-1.29643e-06
-1.91341e-09
-1.29394e-06
-8.91267e-10
-1.2869e-06
1.68606e-10
-1.26814e-06
1.15758e-09
-1.21341e-06
-1.02568e-06
-2.31761e-09
-1.05574e-06
-2.02368e-09
-1.23438e-06
-1.40931e-09
-1.28174e-06
-1.08814e-09
-1.29584e-06
-1.17703e-09
-1.29972e-06
-1.26049e-09
-1.29987e-06
-1.46918e-09
-1.29833e-06
-1.66199e-09
-1.29614e-06
-1.98972e-09
-1.29411e-06
-2.32255e-09
-1.29285e-06
-2.75846e-09
-1.29269e-06
-3.17465e-09
-1.29358e-06
-3.51362e-09
-1.29505e-06
-3.60312e-09
-1.29635e-06
-3.41401e-09
-1.2965e-06
-2.80531e-09
-1.29435e-06
-1.86995e-09
-1.28762e-06
-5.32477e-10
-1.26922e-06
1.5655e-09
-1.21521e-06
-1.02403e-06
-2.115e-09
-1.05325e-06
-1.67251e-09
-1.23445e-06
-1.35187e-09
-1.28177e-06
-1.14827e-09
-1.29575e-06
-1.19921e-09
-1.29946e-06
-1.34375e-09
-1.29951e-06
-1.59992e-09
-1.29792e-06
-1.83277e-09
-1.29573e-06
-2.09845e-09
-1.29374e-06
-2.29936e-09
-1.29251e-06
-2.5583e-09
-1.29236e-06
-2.70616e-09
-1.29324e-06
-2.90495e-09
-1.29476e-06
-2.86982e-09
-1.29618e-06
-2.62503e-09
-1.29652e-06
-2.17056e-09
-1.29455e-06
-1.58736e-09
-1.28789e-06
-7.73089e-10
-1.26964e-06
6.28901e-10
-1.2162e-06
-1.02334e-06
2.76211e-10
-1.05319e-06
-3.19647e-10
-1.23356e-06
-1.58021e-09
-1.28023e-06
-2.66975e-09
-1.29441e-06
-3.27546e-09
-1.29864e-06
-3.43568e-09
-1.29913e-06
-3.34345e-09
-1.29786e-06
-3.04756e-09
-1.29585e-06
-2.71095e-09
-1.29396e-06
-2.26521e-09
-1.29279e-06
-1.82225e-09
-1.29268e-06
-1.34269e-09
-1.2936e-06
-9.17945e-10
-1.2951e-06
-4.64365e-10
-1.29646e-06
-1.99703e-10
-1.29667e-06
-1.06624e-10
-1.29442e-06
-3.53745e-10
-1.28738e-06
-9.38284e-10
-1.26877e-06
-1.19381e-09
-1.21566e-06
-1.02451e-06
3.51804e-10
-1.05343e-06
-4.9401e-10
-1.23267e-06
-1.43356e-09
-1.2792e-06
-2.6454e-09
-1.29315e-06
-3.5107e-09
-1.2977e-06
-3.8566e-09
-1.29874e-06
-3.74591e-09
-1.29792e-06
-3.3458e-09
-1.2962e-06
-2.80123e-09
-1.29447e-06
-2.12427e-09
-1.29342e-06
-1.40535e-09
-1.2934e-06
-5.4878e-10
-1.29435e-06
1.88741e-10
-1.29583e-06
8.51182e-10
-1.29701e-06
1.15365e-09
-1.29687e-06
1.03923e-09
-1.29418e-06
5.16143e-10
-1.28676e-06
-3.7369e-10
-1.26781e-06
-1.46567e-09
-1.2145e-06
-1.02598e-06
-1.01887e-09
-1.05213e-06
-1.67183e-09
-1.23176e-06
-1.3108e-09
-1.27933e-06
-1.2493e-09
-1.29303e-06
-1.47475e-09
-1.29731e-06
-1.78691e-09
-1.29828e-06
-2.05641e-09
-1.29754e-06
-2.19363e-09
-1.29595e-06
-2.19981e-09
-1.29437e-06
-2.05808e-09
-1.29345e-06
-1.80458e-09
-1.29355e-06
-1.45739e-09
-1.29461e-06
-1.02606e-09
-1.29616e-06
-5.27504e-10
-1.29739e-06
-1.20698e-10
-1.29722e-06
1.80786e-10
-1.29435e-06
2.16815e-10
-1.28678e-06
1.30659e-10
-1.26776e-06
-5.08808e-10
-1.21388e-06
-1.02647e-06
-1.53369e-09
-1.04988e-06
-1.78738e-09
-1.23094e-06
-1.52224e-09
-1.27901e-06
-1.30162e-09
-1.29285e-06
-1.12682e-09
-1.29708e-06
-1.22418e-09
-1.29794e-06
-1.40371e-09
-1.2971e-06
-1.66789e-09
-1.29554e-06
-1.8423e-09
-1.29403e-06
-2.01704e-09
-1.29317e-06
-2.15025e-09
-1.2933e-06
-2.25066e-09
-1.29437e-06
-2.3092e-09
-1.29596e-06
-2.27359e-09
-1.29728e-06
-2.03331e-09
-1.29726e-06
-1.60217e-09
-1.29461e-06
-9.76571e-10
-1.2873e-06
-1.6035e-11
-1.26862e-06
6.47972e-10
-1.21439e-06
-1.02574e-06
-5.46634e-10
-1.04863e-06
-6.89103e-10
-1.2303e-06
-9.09493e-10
-1.27822e-06
-1.2577e-09
-1.29215e-06
-1.40961e-09
-1.29653e-06
-1.57861e-09
-1.29753e-06
-1.56811e-09
-1.29685e-06
-1.52359e-09
-1.29542e-06
-1.38006e-09
-1.29397e-06
-1.26669e-09
-1.29313e-06
-1.15416e-09
-1.29321e-06
-1.17995e-09
-1.29422e-06
-1.24534e-09
-1.29571e-06
-1.36623e-09
-1.29697e-06
-1.41031e-09
-1.29701e-06
-1.16418e-09
-1.29456e-06
-6.87022e-10
-1.28745e-06
-8.47933e-11
-1.2688e-06
7.37169e-10
-1.21474e-06
-1.02488e-06
1.12703e-10
-1.04838e-06
5.35096e-10
-1.23046e-06
1.22541e-09
-1.27863e-06
1.09832e-09
-1.29185e-06
5.78452e-10
-1.29583e-06
5.88772e-11
-1.29687e-06
-1.75344e-10
-1.29648e-06
-1.17709e-10
-1.29533e-06
1.07975e-10
-1.29408e-06
4.69202e-10
-1.29334e-06
8.0931e-10
-1.29345e-06
1.21553e-09
-1.2944e-06
1.43893e-09
-1.29578e-06
1.5602e-09
-1.29683e-06
1.43489e-09
-1.29654e-06
9.20628e-10
-1.29369e-06
3.92865e-11
-1.28608e-06
-9.53625e-10
-1.26723e-06
-8.41847e-10
-1.21426e-06
-1.02562e-06
-1.15677e-11
-1.04795e-06
1.1053e-09
-1.23116e-06
1.67962e-09
-1.27888e-06
1.57971e-09
-1.29145e-06
1.25379e-09
-1.29528e-06
1.07607e-09
-1.29646e-06
1.05437e-09
-1.2963e-06
1.24969e-09
-1.29532e-06
1.53755e-09
-1.29422e-06
1.97538e-09
-1.29357e-06
2.46285e-09
-1.29374e-06
2.93752e-09
-1.29469e-06
3.32118e-09
-1.29595e-06
3.47598e-09
-1.29673e-06
3.16005e-09
-1.29598e-06
2.25539e-09
-1.29247e-06
7.62274e-10
-1.28422e-06
-9.23487e-10
-1.26512e-06
-1.76308e-09
-1.21296e-06
-1.02731e-06
9.28716e-10
-1.0482e-06
1.40036e-09
-1.23106e-06
1.06419e-09
-1.27798e-06
8.41457e-10
-1.29085e-06
9.43229e-10
-1.295e-06
1.11759e-09
-1.29638e-06
1.33985e-09
-1.29626e-06
1.52747e-09
-1.29532e-06
1.75655e-09
-1.29425e-06
2.00611e-09
-1.29364e-06
2.2481e-09
-1.29381e-06
2.51086e-09
-1.29471e-06
2.66541e-09
-1.2959e-06
2.73534e-09
-1.29655e-06
2.66406e-09
-1.29561e-06
2.31631e-09
-1.29186e-06
1.69583e-09
-1.28334e-06
7.32705e-10
-1.26385e-06
-9.11613e-10
-1.2109e-06
-1.0281e-06
1.45759e-09
-1.04887e-06
1.76572e-09
-1.2306e-06
2.09392e-09
-1.27764e-06
2.55099e-09
-1.29076e-06
2.79066e-09
-1.29475e-06
2.70559e-09