/*--------------------------------*- C++ -*----------------------------------*\
  =========                 |
  \\      /  F ield         | OpenFOAM: The Open Source CFD Toolbox
   \\    /   O peration     | Website:  https://openfoam.org
    \\  /    A nd           | Version:  6
     \\/     M anipulation  |
\*---------------------------------------------------------------------------*/
FoamFile
{
    version     2.0;
    format      ascii;
    class       volVectorField;
    location    "5";
    object      U;
}
// * * * * * * * * * * * * * * * * * * * * * * * * * * * * * * * * * * * * * //

dimensions      [0 1 -1 0 0 0 0];

internalField   nonuniform List<vector> 
10000
(
(-0.0270943 -4.32105 0)
(-0.0289173 -4.98619 0)
(-0.043048 -5.14298 0)
(-0.0408418 -5.17511 0)
(-0.0326044 -5.17383 0)
(-0.0235059 -5.16455 0)
(-0.0162773 -5.15358 0)
(-0.0113824 -5.14282 0)
(-0.00825638 -5.13393 0)
(-0.00618607 -5.12847 0)
(-0.00448297 -5.12742 0)
(-0.00247401 -5.13046 0)
(0.000569634 -5.13628 0)
(0.00550851 -5.14252 0)
(0.0130047 -5.14655 0)
(0.0229626 -5.14507 0)
(0.0329165 -5.13066 0)
(0.037566 -5.07705 0)
(0.0276788 -4.89101 0)
(0.0302914 -4.20589 0)
(-0.00427219 -4.29364 0)
(-0.00787466 -4.96879 0)
(-0.012189 -5.14978 0)
(-0.0121914 -5.19568 0)
(-0.0112617 -5.19767 0)
(-0.00916249 -5.1859 0)
(-0.00685048 -5.17043 0)
(-0.00484887 -5.15545 0)
(-0.00312909 -5.14345 0)
(-0.00166723 -5.13628 0)
(-0.00024641 -5.13481 0)
(0.00120006 -5.13883 0)
(0.00280002 -5.14688 0)
(0.00472393 -5.15657 0)
(0.00679364 -5.16443 0)
(0.00896144 -5.16518 0)
(0.00993048 -5.14762 0)
(0.00957461 -5.07986 0)
(0.00395356 -4.86879 0)
(0.00352224 -4.17127 0)
(0.00797271 -4.28507 0)
(-0.00934941 -4.96824 0)
(-0.00631716 -5.14714 0)
(-0.00640085 -5.19102 0)
(-0.00585614 -5.194 0)
(-0.00488461 -5.18435 0)
(-0.00370035 -5.17049 0)
(-0.00242171 -5.15642 0)
(-0.00105995 -5.14493 0)
(0.00039584 -5.13804 0)
(0.00193877 -5.13666 0)
(0.00360628 -5.14054 0)
(0.00532597 -5.14793 0)
(0.00696246 -5.1562 0)
(0.00830657 -5.16173 0)
(0.00869304 -5.15936 0)
(0.0074984 -5.1385 0)
(0.00539619 -5.07089 0)
(0.00509228 -4.8652 0)
(-0.00793 -4.16446 0)
(0.0116168 -4.26636 0)
(-0.00783367 -4.95886 0)
(-0.00844478 -5.13983 0)
(-0.00930073 -5.18755 0)
(-0.00882501 -5.19379 0)
(-0.00761486 -5.18594 0)
(-0.00607565 -5.17302 0)
(-0.00435835 -5.15947 0)
(-0.00252168 -5.14846 0)
(-0.000494081 -5.14206 0)
(0.00170407 -5.14122 0)
(0.00400867 -5.14561 0)
(0.00627368 -5.15342 0)
(0.00824728 -5.16153 0)
(0.00951051 -5.16579 0)
(0.00930756 -5.16075 0)
(0.00727844 -5.13717 0)
(0.00429817 -5.06894 0)
(0.00466312 -4.86635 0)
(-0.01014 -4.16264 0)
(0.0138421 -4.261 0)
(-0.00556801 -4.95391 0)
(-0.00794163 -5.13356 0)
(-0.0101285 -5.18371 0)
(-0.0111941 -5.19248 0)
(-0.0108635 -5.18669 0)
(-0.00953789 -5.17536 0)
(-0.00755761 -5.16301 0)
(-0.0051825 -5.15288 0)
(-0.00248304 -5.1471 0)
(0.000346481 -5.14654 0)
(0.00319467 -5.15063 0)
(0.00582549 -5.15741 0)
(0.00788446 -5.16361 0)
(0.00909426 -5.16512 0)
(0.00919494 -5.15701 0)
(0.00829631 -5.13078 0)
(0.00586662 -5.0605 0)
(0.00603921 -4.86008 0)
(-0.0139612 -4.16238 0)
(0.00284725 -4.2599 0)
(-0.0023915 -4.9579 0)
(-0.00504185 -5.13344 0)
(-0.00684177 -5.18329 0)
(-0.00904442 -5.19345 0)
(-0.0100703 -5.1896 0)
(-0.00975328 -5.1799 0)
(-0.00841721 -5.16876 0)
(-0.00647649 -5.1594 0)
(-0.0042346 -5.15397 0)
(-0.00190024 -5.15338 0)
(0.000352872 -5.15711 0)
(0.00246817 -5.16325 0)
(0.00430814 -5.16865 0)
(0.00562559 -5.16964 0)
(0.00634997 -5.16152 0)
(0.00668367 -5.13441 0)
(0.00588689 -5.06102 0)
(0.00541564 -4.85721 0)
(-0.00196563 -4.15559 0)
(-0.00635462 -4.25893 0)
(-0.00432321 -4.96022 0)
(-0.00323555 -5.13792 0)
(-0.00232099 -5.18362 0)
(-0.00323448 -5.19209 0)
(-0.00436294 -5.18922 0)
(-0.00500356 -5.18133 0)
(-0.00499839 -5.17177 0)
(-0.00452422 -5.16338 0)
(-0.00376171 -5.15834 0)
(-0.00289493 -5.1578 0)
(-0.0020437 -5.16147 0)
(-0.0012098 -5.16752 0)
(-0.000461031 -5.17274 0)
(0.000191053 -5.17312 0)
(0.000734343 -5.16417 0)
(0.00138733 -5.13738 0)
(0.00232468 -5.06518 0)
(0.00187291 -4.85707 0)
(0.00664948 -4.15854 0)
(-0.00749146 -4.24561 0)
(-0.00506106 -4.96573 0)
(-0.00115427 -5.14829 0)
(-0.000779126 -5.19074 0)
(-0.000707161 -5.19563 0)
(-0.000929213 -5.19058 0)
(-0.00140615 -5.18183 0)
(-0.00181491 -5.1721 0)
(-0.0021279 -5.16386 0)
(-0.00233597 -5.15895 0)
(-0.0024889 -5.15841 0)
(-0.00266978 -5.16195 0)
(-0.00287243 -5.16784 0)
(-0.00312919 -5.17315 0)
(-0.00323492 -5.17416 0)
(-0.00276118 -5.16638 0)
(-0.00136891 -5.14106 0)
(0.000862866 -5.0695 0)
(0.000352321 -4.85737 0)
(0.00841374 -4.14615 0)
(-0.00479851 -4.23854 0)
(0.0001226 -4.96689 0)
(-0.000415302 -5.14463 0)
(-0.00241784 -5.18638 0)
(-0.00344883 -5.19287 0)
(-0.00359311 -5.18881 0)
(-0.00332206 -5.18062 0)
(-0.0028922 -5.17121 0)
(-0.00256748 -5.16309 0)
(-0.00241248 -5.1582 0)
(-0.00244668 -5.15758 0)
(-0.0026276 -5.16099 0)
(-0.00293717 -5.16674 0)
(-0.00335793 -5.17201 0)
(-0.00363188 -5.1735 0)
(-0.00353696 -5.16681 0)
(-0.0028073 -5.14263 0)
(-0.00105894 -5.07134 0)
(0.00141084 -4.85801 0)
(0.00205923 -4.14437 0)
(-0.00631005 -4.23118 0)
(0.00249112 -4.96477 0)
(-0.00262833 -5.13818 0)
(-0.00334929 -5.1809 0)
(-0.00403732 -5.19004 0)
(-0.00417588 -5.18827 0)
(-0.00370084 -5.18138 0)
(-0.00296108 -5.17247 0)
(-0.00215915 -5.16417 0)
(-0.00143822 -5.15885 0)
(-0.000911444 -5.15778 0)
(-0.000637234 -5.16072 0)
(-0.000602611 -5.16606 0)
(-0.000647626 -5.17114 0)
(-0.00071035 -5.17252 0)
(-0.000826524 -5.1658 0)
(-0.00101117 -5.14263 0)
(-0.000807894 -5.07445 0)
(0.00271385 -4.86376 0)
(-0.00657622 -4.13072 0)
(-0.013027 -4.2382 0)
(0.0031647 -4.96247 0)
(-0.00239436 -5.14152 0)
(-0.00140162 -5.18468 0)
(-0.000853001 -5.19256 0)
(-0.000660195 -5.19029 0)
(-0.000524403 -5.18341 0)
(-0.00023209 -5.17459 0)
(0.000307457 -5.16634 0)
(0.00106935 -5.16086 0)
(0.0019027 -5.15939 0)
(0.00276685 -5.16187 0)
(0.00358979 -5.16691 0)
(0.00422993 -5.17184 0)
(0.00457463 -5.17297 0)
(0.00427207 -5.16543 0)
(0.00309674 -5.14069 0)
(0.00126854 -5.07208 0)
(0.000587815 -4.86576 0)
(-0.00943639 -4.13225 0)
(-0.0110519 -4.24151 0)
(0.00264457 -4.96005 0)
(-0.00176685 -5.14338 0)
(-0.000705269 -5.1881 0)
(0.000118518 -5.19534 0)
(0.000515599 -5.19192 0)
(0.000626251 -5.18447 0)
(0.000738631 -5.17568 0)
(0.000995207 -5.16781 0)
(0.00148239 -5.16276 0)
(0.00222099 -5.16172 0)
(0.00313645 -5.16444 0)
(0.00411271 -5.16931 0)
(0.00486807 -5.17337 0)
(0.0049854 -5.17303 0)
(0.00419361 -5.16357 0)
(0.00261905 -5.13664 0)
(0.000645126 -5.06811 0)
(-0.000240847 -4.8685 0)
(-0.0100287 -4.13227 0)
(0.00663745 -4.2394 0)
(-0.00113217 -4.95621 0)
(-0.000863253 -5.14156 0)
(-0.000486131 -5.18683 0)
(-0.00059547 -5.1943 0)
(-0.000829595 -5.19119 0)
(-0.00102886 -5.18412 0)
(-0.00115983 -5.17574 0)
(-0.00120372 -5.16827 0)
(-0.00114971 -5.16369 0)
(-0.000989034 -5.16312 0)
(-0.000755776 -5.16616 0)
(-0.000520383 -5.17107 0)
(-0.000376381 -5.17486 0)
(-0.000379104 -5.17406 0)
(-0.000451348 -5.16446 0)
(-0.000377353 -5.13842 0)
(-0.000247989 -5.07031 0)
(-0.00191835 -4.8674 0)
(0.00725243 -4.14059 0)
(0.0196319 -4.23758 0)
(-0.00468211 -4.9612 0)
(-0.000573139 -5.14159 0)
(-0.00178167 -5.18605 0)
(-0.00301427 -5.19319 0)
(-0.00383354 -5.19027 0)
(-0.00422174 -5.18351 0)
(-0.0043706 -5.17535 0)
(-0.00441757 -5.16807 0)
(-0.00442996 -5.16368 0)
(-0.00442448 -5.16319 0)
(-0.00449489 -5.16629 0)
(-0.00460716 -5.17131 0)
(-0.00460999 -5.17554 0)
(-0.00437211 -5.17563 0)
(-0.00361449 -5.16728 0)
(-0.00236602 -5.14219 0)
(-0.00111923 -5.07244 0)
(-0.00530257 -4.86135 0)
(0.0182886 -4.14299 0)
(0.00796889 -4.23574 0)
(-0.00388905 -4.96135 0)
(-0.0025512 -5.13805 0)
(-0.00499229 -5.18239 0)
(-0.006714 -5.19064 0)
(-0.00745719 -5.18905 0)
(-0.00751742 -5.1833 0)
(-0.00729285 -5.17567 0)
(-0.00701126 -5.16854 0)
(-0.00674524 -5.16404 0)
(-0.00652213 -5.1633 0)
(-0.00631939 -5.16617 0)
(-0.0061345 -5.1711 0)
(-0.00591963 -5.17545 0)
(-0.00558643 -5.17577 0)
(-0.00505589 -5.16774 0)
(-0.0041824 -5.1425 0)
(-0.00295421 -5.07144 0)
(-0.00428132 -4.85849 0)
(0.00745878 -4.14895 0)
(0.00109443 -4.23483 0)
(-0.00397953 -4.95972 0)
(-0.00373634 -5.13738 0)
(-0.00467292 -5.17952 0)
(-0.00575836 -5.18862 0)
(-0.0065296 -5.18857 0)
(-0.00699791 -5.18379 0)
(-0.00717377 -5.17645 0)
(-0.00711284 -5.16935 0)
(-0.00694594 -5.16486 0)
(-0.00667945 -5.16417 0)
(-0.00634267 -5.1671 0)
(-0.00590933 -5.17207 0)
(-0.00532106 -5.17647 0)
(-0.00470607 -5.17694 0)
(-0.00407304 -5.1693 0)
(-0.00309134 -5.14494 0)
(-0.00178073 -5.07517 0)
(-0.00244324 -4.86267 0)
(0.00379131 -4.14213 0)
(-0.00397485 -4.22732 0)
(-0.00309647 -4.95486 0)
(-0.0045054 -5.13924 0)
(-0.00354174 -5.18105 0)
(-0.0033634 -5.18872 0)
(-0.00380152 -5.1877 0)
(-0.00449454 -5.18279 0)
(-0.00502686 -5.17586 0)
(-0.00529099 -5.16926 0)
(-0.00536495 -5.16514 0)
(-0.00533201 -5.16481 0)
(-0.00512947 -5.16818 0)
(-0.0047302 -5.17372 0)
(-0.00409898 -5.17864 0)
(-0.00317469 -5.17936 0)
(-0.00225878 -5.1717 0)
(-0.00153409 -5.14713 0)
(-0.000849025 -5.07634 0)
(-0.00207973 -4.86396 0)
(0.000368634 -4.15033 0)
(-0.0109917 -4.22473 0)
(0.000492686 -4.95294 0)
(-0.00144009 -5.13978 0)
(-0.000764165 -5.18158 0)
(-0.00117804 -5.18826 0)
(-0.00172521 -5.18655 0)
(-0.00218594 -5.18156 0)
(-0.00253179 -5.17503 0)
(-0.00274887 -5.16887 0)
(-0.00286817 -5.16505 0)
(-0.00295792 -5.16493 0)
(-0.00311205 -5.16852 0)
(-0.00339678 -5.17441 0)
(-0.00376794 -5.17981 0)
(-0.00420607 -5.18074 0)
(-0.00440051 -5.17245 0)
(-0.0044434 -5.1473 0)
(-0.00327629 -5.07832 0)
(-0.00053213 -4.8678 0)
(-0.00453706 -4.14518 0)
(-0.00784324 -4.21552 0)
(8.8336e-05 -4.9609 0)
(0.000244639 -5.14331 0)
(0.000835335 -5.18163 0)
(0.000583691 -5.18775 0)
(0.000337253 -5.18633 0)
(0.000198112 -5.18163 0)
(9.0989e-05 -5.17514 0)
(1.57384e-05 -5.16888 0)
(-4.03528e-05 -5.16493 0)
(-0.000146084 -5.16445 0)
(-0.000350628 -5.16742 0)
(-0.000807794 -5.17251 0)
(-0.00161854 -5.17721 0)
(-0.00261134 -5.17824 0)
(-0.00322526 -5.17121 0)
(-0.0031244 -5.14818 0)
(-0.00164721 -5.08196 0)
(0.00138656 -4.87313 0)
(-0.00484927 -4.1456 0)
(0.00527084 -4.21699 0)
(-0.00375908 -4.95865 0)
(-0.00038883 -5.14371 0)
(0.000516614 -5.18321 0)
(0.00143766 -5.18907 0)
(0.00198635 -5.18709 0)
(0.00219316 -5.18199 0)
(0.00215263 -5.17529 0)
(0.00199255 -5.16906 0)
(0.00181756 -5.16521 0)
(0.00174801 -5.16482 0)
(0.00182362 -5.1677 0)
(0.00208386 -5.17242 0)
(0.00249046 -5.17678 0)
(0.00281024 -5.17787 0)
(0.0026971 -5.1714 0)
(0.00214081 -5.14856 0)
(0.00119035 -5.08215 0)
(0.00105293 -4.87731 0)
(-0.0108579 -4.13903 0)
(0.000760709 -4.21687 0)
(-0.00218124 -4.95822 0)
(0.00108356 -5.14538 0)
(0.00234724 -5.18687 0)
(0.00360632 -5.1925 0)
(0.00427911 -5.18931 0)
(0.00444692 -5.18295 0)
(0.00412689 -5.17538 0)
(0.00346122 -5.16877 0)
(0.00266713 -5.16498 0)
(0.00193266 -5.16515 0)
(0.00149191 -5.169 0)
(0.00146018 -5.17483 0)
(0.00185172 -5.17971 0)
(0.00238837 -5.17995 0)
(0.00233361 -5.17122 0)
(0.00121082 -5.1458 0)
(-0.000484432 -5.07771 0)
(-0.000146394 -4.87724 0)
(-0.00972132 -4.14717 0)
(-0.0143355 -4.22117 0)
(0.00318055 -4.96219 0)
(0.00340071 -5.15005 0)
(0.00511368 -5.19105 0)
(0.00615639 -5.19583 0)
(0.00652049 -5.1914 0)
(0.00623879 -5.18355 0)
(0.00538809 -5.1747 0)
(0.00413347 -5.16718 0)
(0.00263108 -5.16309 0)
(0.00107236 -5.16336 0)
(-0.000440471 -5.16777 0)
(-0.00177138 -5.17453 0)
(-0.00275455 -5.1804 0)
(-0.00351146 -5.18139 0)
(-0.00379796 -5.17293 0)
(-0.00380407 -5.14781 0)
(-0.00341536 -5.08002 0)
(-0.00212914 -4.87736 0)
(0.00448989 -4.15683 0)
(-0.00861108 -4.21977 0)
(0.00220156 -4.96866 0)
(0.002037 -5.15349 0)
(0.00363685 -5.19287 0)
(0.00515306 -5.19674 0)
(0.00599872 -5.19123 0)
(0.00584233 -5.18218 0)
(0.00492148 -5.17233 0)
(0.00350625 -5.16409 0)
(0.0017664 -5.15956 0)
(-9.4508e-05 -5.15969 0)
(-0.00186006 -5.16422 0)
(-0.0034004 -5.1714 0)
(-0.00457974 -5.17806 0)
(-0.00517566 -5.18033 0)
(-0.00475594 -5.17379 0)
(-0.00375819 -5.15013 0)
(-0.00310242 -5.08201 0)
(-0.0045152 -4.87459 0)
(0.012681 -4.16099 0)
(0.00862893 -4.21786 0)
(-0.00334159 -4.96345 0)
(-0.000622396 -5.14997 0)
(0.00046388 -5.19329 0)
(0.00247242 -5.19817 0)
(0.00367826 -5.19139 0)
(0.00380219 -5.18068 0)
(0.00309635 -5.16951 0)
(0.00187123 -5.16045 0)
(0.000368316 -5.1556 0)
(-0.00119209 -5.1559 0)
(-0.00265556 -5.16098 0)
(-0.00385599 -5.16889 0)
(-0.0044911 -5.17651 0)
(-0.00430209 -5.17992 0)
(-0.00311592 -5.17395 0)
(-0.00165601 -5.14861 0)
(-0.00138625 -5.07731 0)
(-0.00460734 -4.86942 0)
(0.0111448 -4.16479 0)
(0.00686804 -4.21902 0)
(-0.00145708 -4.96395 0)
(0.00256357 -5.15061 0)
(0.00243874 -5.19624 0)
(0.00193683 -5.2004 0)
(0.00118772 -5.19197 0)
(0.000556926 -5.17981 0)
(-3.05203e-05 -5.1676 0)
(-0.000579125 -5.15792 0)
(-0.00113846 -5.15274 0)
(-0.0017747 -5.15305 0)
(-0.00244916 -5.15848 0)
(-0.00319143 -5.16729 0)
(-0.0038238 -5.17644 0)
(-0.00407739 -5.18173 0)
(-0.00383882 -5.17703 0)
(-0.00287939 -5.15158 0)
(-0.00155599 -5.07876 0)
(-0.0040062 -4.86814 0)
(0.0111793 -4.16776 0)
(-0.00312651 -4.22514 0)
(0.00471098 -4.9699 0)
(0.00300862 -5.15235 0)
(0.000439205 -5.19257 0)
(-0.00229661 -5.19502 0)
(-0.00391796 -5.18796 0)
(-0.00436131 -5.17767 0)
(-0.0040248 -5.16686 0)
(-0.00319017 -5.15795 0)
(-0.00212923 -5.153 0)
(-0.00105532 -5.15309 0)
(-0.000164568 -5.158 0)
(0.000407159 -5.16612 0)
(0.0006538 -5.17463 0)
(0.000394043 -5.17969 0)
(-0.000334172 -5.17597 0)
(-0.00090728 -5.15308 0)
(-0.000995172 -5.08093 0)
(-0.000826846 -4.86865 0)
(-0.00528979 -4.17383 0)
(-0.00229929 -4.23022 0)
(0.00329794 -4.96897 0)
(-0.00287428 -5.14498 0)
(-0.00602262 -5.18554 0)
(-0.00732579 -5.19113 0)
(-0.00714348 -5.1869 0)
(-0.00624131 -5.1788 0)
(-0.00482917 -5.16955 0)
(-0.00310454 -5.16157 0)
(-0.00118342 -5.15698 0)
(0.000760832 -5.15696 0)
(0.00265736 -5.16141 0)
(0.00435125 -5.16867 0)
(0.00565846 -5.17579 0)
(0.00643108 -5.17899 0)
(0.00640257 -5.17322 0)
(0.00523345 -5.14879 0)
(0.00306515 -5.07674 0)
(0.00440679 -4.86768 0)
(-0.0166084 -4.16924 0)
(-0.0091131 -4.227 0)
(0.00189306 -4.96815 0)
(-0.00462238 -5.14374 0)
(-0.00570324 -5.18756 0)
(-0.00583158 -5.19563 0)
(-0.00517255 -5.19186 0)
(-0.00398227 -5.18376 0)
(-0.00249462 -5.17447 0)
(-0.00087602 -5.1665 0)
(0.000855259 -5.16198 0)
(0.00270083 -5.16195 0)
(0.00454177 -5.16619 0)
(0.00627334 -5.17304 0)
(0.00774275 -5.17956 0)
(0.00866077 -5.1819 0)
(0.00902548 -5.17466 0)
(0.00872188 -5.14801 0)
(0.007354 -5.07496 0)
(0.00783525 -4.86709 0)
(-0.00869732 -4.16607 0)
(-0.0121284 -4.23186 0)
(0.0027787 -4.9621 0)
(-0.00146987 -5.14455 0)
(-0.000597416 -5.18802 0)
(-0.0007307 -5.19583 0)
(-0.000838467 -5.19313 0)
(-0.000504292 -5.18609 0)
(0.000152209 -5.17748 0)
(0.00102552 -5.16983 0)
(0.00201814 -5.16549 0)
(0.00308705 -5.16565 0)
(0.00426711 -5.16991 0)
(0.00548761 -5.17648 0)
(0.00656241 -5.18241 0)
(0.00726393 -5.18408 0)
(0.00742423 -5.17663 0)
(0.00734117 -5.15019 0)
(0.00709951 -5.07682 0)
(0.00911937 -4.86582 0)
(-0.0123593 -4.16271 0)
(0.00413971 -4.23317 0)
(-0.00151153 -4.95932 0)
(0.000440304 -5.14636 0)
(0.00197382 -5.18973 0)
(0.00290968 -5.19632 0)
(0.00324159 -5.19318 0)
(0.00318975 -5.18625 0)
(0.00298928 -5.17798 0)
(0.00286151 -5.1707 0)
(0.00279296 -5.16666 0)
(0.00278888 -5.16703 0)
(0.00280085 -5.17148 0)
(0.00288034 -5.1782 0)
(0.0030627 -5.18406 0)
(0.00317162 -5.18519 0)
(0.00328494 -5.17712 0)
(0.00375084 -5.15117 0)
(0.0050747 -5.07955 0)
(0.00799298 -4.86674 0)
(-0.00756916 -4.14681 0)
(0.00973208 -4.22949 0)
(-0.00338959 -4.9591 0)
(0.00188878 -5.14727 0)
(0.00297893 -5.19227 0)
(0.00438058 -5.19862 0)
(0.00508787 -5.19417 0)
(0.00518715 -5.186 0)
(0.00488379 -5.17697 0)
(0.00436925 -5.16946 0)
(0.003746 -5.16538 0)
(0.00303284 -5.16569 0)
(0.00227148 -5.17017 0)
(0.00153419 -5.17708 0)
(0.000789887 -5.18332 0)
(0.000303745 -5.18515 0)
(0.000442019 -5.17832 0)
(0.0014769 -5.15402 0)
(0.00374563 -5.08318 0)
(0.00518725 -4.86686 0)
(0.00654562 -4.13495 0)
(0.00714206 -4.23434 0)
(-0.00153424 -4.95643 0)
(0.00161946 -5.14697 0)
(0.00205595 -5.19302 0)
(0.00320491 -5.19912 0)
(0.00406356 -5.19425 0)
(0.00467865 -5.18567 0)
(0.00498574 -5.17619 0)
(0.00494612 -5.1682 0)
(0.00459561 -5.16363 0)
(0.00401846 -5.16357 0)
(0.00324593 -5.16777 0)
(0.00235313 -5.17437 0)
(0.00142958 -5.18052 0)
(0.00062504 -5.18273 0)
(0.00018774 -5.17675 0)
(0.000258541 -5.15351 0)
(0.0013776 -5.08331 0)
(0.00664536 -4.86683 0)
(-0.00593616 -4.12851 0)
(0.0101333 -4.24087 0)
(-0.00120055 -4.95631 0)
(0.000536809 -5.14649 0)
(0.000229664 -5.19529 0)
(0.00116797 -5.20209 0)
(0.00245723 -5.19692 0)
(0.00373281 -5.18756 0)
(0.00479877 -5.1772 0)
(0.00547676 -5.16833 0)
(0.00578789 -5.16293 0)
(0.00573918 -5.16215 0)
(0.00545824 -5.16577 0)
(0.00498582 -5.17194 0)
(0.00441333 -5.17785 0)
(0.00396999 -5.17986 0)
(0.0034461 -5.17353 0)
(0.00253998 -5.15065 0)
(0.00158237 -5.08316 0)
(0.00823851 -4.8704 0)
(-0.015366 -4.11004 0)
(-0.00115761 -4.24436 0)
(-0.00124034 -4.95607 0)
(0.000725264 -5.14607 0)
(0.00143234 -5.1958 0)
(0.00237146 -5.20368 0)
(0.00351624 -5.19921 0)
(0.00447178 -5.19006 0)
(0.00530088 -5.17929 0)
(0.00608975 -5.16966 0)
(0.00685499 -5.16358 0)
(0.00759881 -5.16227 0)
(0.00822513 -5.16543 0)
(0.00872116 -5.1714 0)
(0.00905548 -5.17726 0)
(0.00909143 -5.17913 0)
(0.00853082 -5.1718 0)
(0.00699998 -5.14672 0)
(0.0039733 -5.07826 0)
(0.00211916 -4.87042 0)
(-0.00185447 -4.10705 0)
(-0.00807212 -4.23151 0)
(-0.000305373 -4.95802 0)
(-0.000798291 -5.14865 0)
(-0.000110999 -5.19668 0)
(0.000765913 -5.20426 0)
(0.00154843 -5.19961 0)
(0.00209088 -5.19026 0)
(0.00267976 -5.17977 0)
(0.00351101 -5.17085 0)
(0.00459471 -5.16537 0)
(0.00585714 -5.16439 0)
(0.00722933 -5.16759 0)
(0.00849064 -5.17318 0)
(0.0093455 -5.17805 0)
(0.00952688 -5.17845 0)
(0.00864872 -5.16916 0)
(0.00676889 -5.14178 0)
(0.00369503 -5.07277 0)
(-0.00282161 -4.86791 0)
(0.00887571 -4.107 0)
(-0.0065342 -4.22912 0)
(0.00251529 -4.95768 0)
(-0.00317108 -5.14622 0)
(-0.00488192 -5.195 0)
(-0.00584398 -5.20356 0)
(-0.00582522 -5.1996 0)
(-0.00503279 -5.19111 0)
(-0.00381801 -5.18153 0)
(-0.00241163 -5.17326 0)
(-0.000915113 -5.16832 0)
(0.000627291 -5.16771 0)
(0.00206122 -5.17093 0)
(0.00329576 -5.17613 0)
(0.00428168 -5.18022 0)
(0.00466847 -5.17938 0)
(0.00451705 -5.16917 0)
(0.00401935 -5.14206 0)
(0.00263824 -5.07236 0)
(-0.00277038 -4.86222 0)
(0.0134427 -4.11415 0)
(0.00516753 -4.22976 0)
(-0.000674578 -4.95861 0)
(-0.0034911 -5.14221 0)
(-0.00548043 -5.19021 0)
(-0.00766985 -5.20098 0)
(-0.00854321 -5.19974 0)
(-0.00808632 -5.1933 0)
(-0.00696803 -5.18475 0)
(-0.00564133 -5.17679 0)
(-0.0043033 -5.17179 0)
(-0.00305467 -5.17084 0)
(-0.00190416 -5.17376 0)
(-0.000861315 -5.17866 0)
(4.1569e-05 -5.18239 0)
(0.000927741 -5.18121 0)
(0.00183738 -5.17091 0)
(0.00253826 -5.14332 0)
(0.0023501 -5.07066 0)
(-0.00337526 -4.85313 0)
(0.0155958 -4.11537 0)
(0.000999839 -4.2245 0)
(-0.00428441 -4.96119 0)
(-0.00360289 -5.14478 0)
(-0.00346705 -5.19067 0)
(-0.004256 -5.20102 0)
(-0.00491365 -5.20071 0)
(-0.00516778 -5.19523 0)
(-0.00505042 -5.18696 0)
(-0.00465645 -5.17896 0)
(-0.00414853 -5.17382 0)
(-0.00354506 -5.17274 0)
(-0.0029686 -5.17537 0)
(-0.00239778 -5.17993 0)
(-0.00181334 -5.18354 0)
(-0.00118564 -5.18231 0)
(-0.000417612 -5.17152 0)
(0.000364705 -5.14252 0)
(0.000871962 -5.06755 0)
(-0.00096943 -4.84797 0)
(0.00254373 -4.12055 0)
(-0.00810564 -4.22039 0)
(-0.00218994 -4.95743 0)
(-0.00285561 -5.14516 0)
(-0.00226518 -5.19158 0)
(-0.00202372 -5.20135 0)
(-0.00215791 -5.20031 0)
(-0.00266767 -5.19455 0)
(-0.00317918 -5.18661 0)
(-0.00351561 -5.17911 0)
(-0.00368233 -5.17414 0)
(-0.00375207 -5.17311 0)
(-0.00369425 -5.17582 0)
(-0.00352242 -5.18052 0)
(-0.00330584 -5.1843 0)
(-0.00290078 -5.18339 0)
(-0.00231095 -5.17316 0)
(-0.00147843 -5.14465 0)
(-0.000438724 -5.06973 0)
(0.0019808 -4.84986 0)
(-0.00495495 -4.11353 0)
(-0.00167236 -4.21361 0)
(-0.00133504 -4.95521 0)
(-0.000626501 -5.14225 0)
(-0.00109109 -5.18956 0)
(-0.00130818 -5.19956 0)
(-0.00172126 -5.19826 0)
(-0.00231006 -5.19236 0)
(-0.00292681 -5.18468 0)
(-0.00346688 -5.17755 0)
(-0.00383301 -5.173 0)
(-0.00402804 -5.17241 0)
(-0.00410086 -5.17552 0)
(-0.00404199 -5.18053 0)
(-0.00381079 -5.18458 0)
(-0.00340672 -5.18389 0)
(-0.00262832 -5.17363 0)
(-0.00145001 -5.14497 0)
(-0.000283476 -5.06959 0)
(0.00206639 -4.84926 0)
(-0.000369097 -4.11334 0)
(0.00683125 -4.21401 0)
(-0.00131256 -4.95143 0)
(-0.000144158 -5.13907 0)
(-0.00148437 -5.18673 0)
(-0.00234445 -5.19693 0)
(-0.00297764 -5.19602 0)
(-0.00333054 -5.19054 0)
(-0.00356963 -5.18317 0)
(-0.00379598 -5.1764 0)
(-0.00392885 -5.17232 0)
(-0.00398716 -5.17208 0)
(-0.00386121 -5.17544 0)
(-0.00354675 -5.1807 0)
(-0.00300529 -5.18506 0)
(-0.00209983 -5.18489 0)
(-0.000727201 -5.17528 0)
(0.00093951 -5.14682 0)
(0.00196598 -5.07124 0)
(0.000780194 -4.85138 0)
(0.00502438 -4.10632 0)
(0.00937376 -4.21485 0)
(-0.000195708 -4.95095 0)
(-0.000604976 -5.13452 0)
(-0.00261658 -5.18371 0)
(-0.0039171 -5.19544 0)
(-0.00429044 -5.19544 0)
(-0.0041108 -5.19032 0)
(-0.00377191 -5.18306 0)
(-0.00353432 -5.17636 0)
(-0.00338285 -5.17238 0)
(-0.00324647 -5.17238 0)
(-0.00305519 -5.17618 0)
(-0.0026703 -5.18214 0)
(-0.00191685 -5.18737 0)
(-0.000876826 -5.18811 0)
(0.000328663 -5.17913 0)
(0.00157228 -5.14979 0)
(0.00215693 -5.07144 0)
(-0.000992614 -4.84965 0)
(0.00383573 -4.10984 0)
(-0.00223586 -4.22334 0)
(0.00137707 -4.95247 0)
(0.000936179 -5.13328 0)
(0.000302911 -5.1824 0)
(-0.000612451 -5.19517 0)
(-0.00101729 -5.1962 0)
(-0.00112739 -5.19163 0)
(-0.00111578 -5.1843 0)
(-0.00108129 -5.17717 0)
(-0.00115795 -5.17285 0)
(-0.00140413 -5.17271 0)
(-0.00174997 -5.17667 0)
(-0.0021968 -5.1831 0)
(-0.00265009 -5.18883 0)
(-0.00295226 -5.18969 0)
(-0.00318595 -5.18066 0)
(-0.00328787 -5.15217 0)
(-0.00236252 -5.07576 0)
(-0.0022664 -4.85448 0)
(0.006961 -4.10618 0)
(-0.0106774 -4.22115 0)
(0.00231705 -4.95279 0)
(0.00198471 -5.13599 0)
(0.00293343 -5.18419 0)
(0.00350038 -5.19632 0)
(0.00354369 -5.19675 0)
(0.00321149 -5.19156 0)
(0.00275806 -5.18407 0)
(0.00239018 -5.17684 0)
(0.00204629 -5.17221 0)
(0.00166776 -5.17153 0)
(0.00111791 -5.17481 0)
(0.00027861 -5.1806 0)
(-0.000792371 -5.18616 0)
(-0.00198843 -5.18745 0)
(-0.00299781 -5.17941 0)
(-0.00359823 -5.15366 0)
(-0.0033384 -5.08175 0)
(-0.00155598 -4.861 0)
(0.00498178 -4.10655 0)
(-0.00819359 -4.22792 0)
(0.00309762 -4.95095 0)
(0.00367407 -5.1378 0)
(0.00397423 -5.18745 0)
(0.00464035 -5.19827 0)
(0.00492822 -5.19708 0)
(0.0048604 -5.191 0)
(0.0046279 -5.18309 0)
(0.00439064 -5.17581 0)
(0.00427721 -5.1713 0)
(0.00427248 -5.17061 0)
(0.0043713 -5.17359 0)
(0.00448114 -5.17865 0)
(0.00444993 -5.18308 0)
(0.00426616 -5.18329 0)
(0.0038412 -5.17431 0)
(0.00313734 -5.14756 0)
(0.00177258 -5.07521 0)
(-0.00108793 -4.85655 0)
(-0.00138865 -4.09911 0)
(-0.00489925 -4.23049 0)
(0.00323264 -4.948 0)
(0.00350686 -5.13559 0)
(0.00246729 -5.18596 0)
(0.0023304 -5.19745 0)
(0.00255878 -5.19666 0)
(0.00290717 -5.19078 0)
(0.00321458 -5.18291 0)
(0.00352755 -5.17584 0)
(0.00393703 -5.17164 0)
(0.00450432 -5.17136 0)
(0.00520043 -5.17463 0)
(0.00603391 -5.17984 0)
(0.00685453 -5.18404 0)
(0.00731642 -5.18353 0)
(0.00714918 -5.17354 0)
(0.00625304 -5.14474 0)
(0.00450319 -5.06973 0)
(-0.00101132 -4.85326 0)
(-0.00480583 -4.10439 0)
(0.00152424 -4.23967 0)
(0.00117781 -4.94272 0)
(-0.000991383 -5.1307 0)
(-0.00257728 -5.18305 0)
(-0.00236843 -5.19623 0)
(-0.00168917 -5.19658 0)
(-0.000987102 -5.19117 0)
(-0.000300868 -5.18361 0)
(0.000358949 -5.17687 0)
(0.00103576 -5.17299 0)
(0.00176435 -5.17305 0)
(0.00266712 -5.17676 0)
(0.00370219 -5.18224 0)
(0.00459959 -5.18622 0)
(0.00508125 -5.18501 0)
(0.00475076 -5.17405 0)
(0.00362026 -5.14404 0)
(0.00267868 -5.0678 0)
(0.000884093 -4.85363 0)
(-0.0108037 -4.10886 0)
(0.0010729 -4.24394 0)
(-0.000614181 -4.93996 0)
(-0.00472173 -5.12725 0)
(-0.00595095 -5.1833 0)
(-0.00538397 -5.19811 0)
(-0.00440153 -5.19858 0)
(-0.00361376 -5.193 0)
(-0.0030007 -5.18518 0)
(-0.00255661 -5.17819 0)
(-0.00225221 -5.17435 0)
(-0.00199884 -5.1746 0)
(-0.00173899 -5.17854 0)
(-0.00142787 -5.18399 0)
(-0.00112193 -5.18753 0)
(-0.000874505 -5.18539 0)
(-0.000640239 -5.17333 0)
(-0.000293625 -5.14345 0)
(0.00120338 -5.06823 0)
(0.00417324 -4.85156 0)
(-0.00914245 -4.11159 0)
(0.00410075 -4.23933 0)
(-0.00431718 -4.93825 0)
(-0.00513945 -5.1262 0)
(-0.00521571 -5.18467 0)
(-0.00497185 -5.20119 0)
(-0.00449794 -5.20148 0)
(-0.00408541 -5.19505 0)
(-0.00381409 -5.18645 0)
(-0.00376114 -5.17871 0)
(-0.00396975 -5.17423 0)
(-0.00442355 -5.17412 0)
(-0.00500502 -5.17794 0)
(-0.00555183 -5.18357 0)
(-0.00594732 -5.18788 0)
(-0.00581289 -5.18713 0)
(-0.00492932 -5.17681 0)
(-0.00320185 -5.14838 0)
(-0.00022083 -5.0732 0)
(0.00633333 -4.85312 0)
(-0.00895313 -4.10929 0)
(0.00770906 -4.22841 0)
(-0.00866532 -4.93691 0)
(-0.0038577 -5.12589 0)
(-0.00229785 -5.18326 0)
(-0.00213626 -5.19973 0)
(-0.00235205 -5.2006 0)
(-0.00265774 -5.19443 0)
(-0.00307621 -5.18569 0)
(-0.0035842 -5.17757 0)
(-0.00423762 -5.17254 0)
(-0.00502268 -5.17186 0)
(-0.00592959 -5.17534 0)
(-0.00677282 -5.18109 0)
(-0.0073373 -5.18592 0)
(-0.00738269 -5.18595 0)
(-0.00666621 -5.17673 0)
(-0.00506249 -5.1492 0)
(-0.00230886 -5.07463 0)
(0.00344322 -4.85731 0)
(0.00127952 -4.0976 0)
(-0.00423581 -4.21227 0)
(-0.00434761 -4.93815 0)
(-0.00315866 -5.12806 0)
(-0.00243313 -5.18346 0)
(-0.00225918 -5.19802 0)
(-0.00243598 -5.1983 0)
(-0.00287103 -5.19202 0)
(-0.00338653 -5.18317 0)
(-0.00390157 -5.17502 0)
(-0.00437214 -5.16996 0)
(-0.00484155 -5.16927 0)
(-0.00527902 -5.17278 0)
(-0.00568989 -5.1787 0)
(-0.00596901 -5.18406 0)
(-0.00575477 -5.18495 0)
(-0.00502503 -5.1767 0)
(-0.00394904 -5.15015 0)
(-0.00250317 -5.07736 0)
(-0.000452986 -4.86226 0)
(0.0073838 -4.0901 0)
(-0.00557003 -4.21082 0)
(0.00236778 -4.93501 0)
(-0.00166583 -5.12359 0)
(-0.00470085 -5.18037 0)
(-0.00640485 -5.19611 0)
(-0.00695742 -5.1968 0)
(-0.00686393 -5.19083 0)
(-0.00637781 -5.18232 0)
(-0.00573648 -5.17453 0)
(-0.0049757 -5.16974 0)
(-0.00410366 -5.16915 0)
(-0.00318277 -5.17264 0)
(-0.0022945 -5.17861 0)
(-0.00139973 -5.1842 0)
(-0.000573408 -5.18546 0)
(-0.000128893 -5.17712 0)
(-0.000158152 -5.14946 0)
(-0.00128187 -5.07556 0)
(-0.00393903 -4.86269 0)
(0.00400642 -4.09204 0)
(-0.00688318 -4.21474 0)
(0.00221055 -4.93168 0)
(-0.00120436 -5.11672 0)
(-0.00439682 -5.17343 0)
(-0.00674536 -5.19173 0)
(-0.00782507 -5.1953 0)
(-0.00782714 -5.19147 0)
(-0.00716114 -5.18417 0)
(-0.00618075 -5.17698 0)
(-0.00496397 -5.17253 0)
(-0.0035753 -5.1722 0)
(-0.0019852 -5.17581 0)
(-0.000332869 -5.18161 0)
(0.00117686 -5.18643 0)
(0.00232624 -5.18619 0)
(0.00256151 -5.1759 0)
(0.00194707 -5.14663 0)
(0.0003569 -5.0713 0)
(-0.00479619 -4.85937 0)
(0.00484143 -4.10072 0)
(-0.00845054 -4.2132 0)
(-0.00100229 -4.92917 0)
(-0.00267466 -5.11683 0)
(-0.00268658 -5.17169 0)
(-0.00293457 -5.18957 0)
(-0.00344291 -5.194 0)
(-0.00397343 -5.19126 0)
(-0.00434989 -5.18481 0)
(-0.00447013 -5.17824 0)
(-0.00431973 -5.17433 0)
(-0.0039189 -5.17455 0)
(-0.00330815 -5.17863 0)
(-0.0024959 -5.18468 0)
(-0.00152258 -5.18945 0)
(-0.000518606 -5.18879 0)
(0.00024229 -5.17777 0)
(0.000537911 -5.14792 0)
(0.000690653 -5.07148 0)
(0.00146958 -4.85684 0)
(-0.0055749 -4.11266 0)
(-0.00871191 -4.20178 0)
(0.000809373 -4.92461 0)
(-0.0042241 -5.11681 0)
(-0.00332271 -5.17188 0)
(-0.00265563 -5.1886 0)
(-0.00243628 -5.19209 0)
(-0.0026502 -5.1889 0)
(-0.00310476 -5.18263 0)
(-0.00353842 -5.17653 0)
(-0.00388082 -5.17313 0)
(-0.0041765 -5.17383 0)
(-0.0044084 -5.17847 0)
(-0.00457701 -5.18523 0)
(-0.00462385 -5.19084 0)
(-0.00440915 -5.19086 0)
(-0.00377065 -5.17996 0)
(-0.0028999 -5.15029 0)
(-0.00149774 -5.07549 0)
(0.00474949 -4.85902 0)
(-0.00350689 -4.10361 0)
(-0.00181904 -4.19402 0)
(0.00279099 -4.9193 0)
(-0.00292279 -5.11184 0)
(-0.00277225 -5.16814 0)
(-0.00306816 -5.18608 0)
(-0.00327158 -5.19012 0)
(-0.00328957 -5.18713 0)
(-0.00315389 -5.18117 0)
(-0.00291531 -5.1753 0)
(-0.00263006 -5.17193 0)
(-0.00238669 -5.17232 0)
(-0.00228719 -5.17643 0)
(-0.0023755 -5.18257 0)
(-0.00259002 -5.18771 0)
(-0.00287983 -5.18777 0)
(-0.00278024 -5.17773 0)
(-0.00211845 -5.14914 0)
(-0.00149801 -5.07482 0)
(0.00179594 -4.85752 0)
(0.0052243 -4.0983 0)
(0.0056186 -4.19636 0)
(0.000264498 -4.9215 0)
(0.00145333 -5.11312 0)
(0.00244503 -5.16805 0)
(0.00150102 -5.18497 0)
(0.000278303 -5.18902 0)
(-0.000454832 -5.18678 0)
(-0.000493726 -5.1815 0)
(-9.99056e-05 -5.17598 0)
(0.000547649 -5.17266 0)
(0.00128129 -5.17287 0)
(0.00204777 -5.17658 0)
(0.00272837 -5.18213 0)
(0.00314177 -5.18662 0)
(0.0032178 -5.18614 0)
(0.00262552 -5.17574 0)
(0.00121201 -5.14635 0)
(-0.00154713 -5.0706 0)
(-0.002424 -4.85521 0)
(0.00104095 -4.09656 0)
(0.00638982 -4.19422 0)
(-0.000459558 -4.92691 0)
(0.00282724 -5.11966 0)
(0.0035765 -5.16958 0)
(0.00273269 -5.18358 0)
(0.00205126 -5.18707 0)
(0.0018641 -5.18563 0)
(0.00212309 -5.1813 0)
(0.00267224 -5.17657 0)
(0.00344119 -5.17376 0)
(0.0044033 -5.1743 0)
(0.00542058 -5.17805 0)
(0.00636793 -5.18323 0)
(0.00705111 -5.18663 0)
(0.00710813 -5.18416 0)
(0.00594276 -5.17088 0)
(0.00329627 -5.13863 0)
(-0.000635839 -5.06296 0)
(-0.00357263 -4.85395 0)
(-0.00255102 -4.10635 0)
(0.0120048 -4.18957 0)
(-0.000379788 -4.92348 0)
(0.00194663 -5.11246 0)
(0.0020203 -5.1635 0)
(0.00180102 -5.18006 0)
(0.00197358 -5.18577 0)
(0.00236722 -5.18555 0)
(0.00276301 -5.18181 0)
(0.0031944 -5.17745 0)
(0.00370736 -5.17492 0)
(0.00424691 -5.17557 0)
(0.00480296 -5.17919 0)
(0.00528023 -5.18401 0)
(0.00559052 -5.18675 0)
(0.00569914 -5.18325 0)
(0.00524439 -5.16872 0)
(0.00403474 -5.13528 0)
(0.00227191 -5.05847 0)
(-0.00184074 -4.85034 0)
(0.00342762 -4.11232 0)
(0.0149769 -4.19405 0)
(-0.00209093 -4.9217 0)
(0.00371202 -5.10937 0)
(0.00511707 -5.16172 0)
(0.00572265 -5.17872 0)
(0.00564506 -5.18434 0)
(0.00516905 -5.18388 0)
(0.00462705 -5.18031 0)
(0.00419556 -5.17631 0)
(0.00388764 -5.17409 0)
(0.00365744 -5.17495 0)
(0.00337189 -5.17871 0)
(0.00299444 -5.18364 0)
(0.0025202 -5.1865 0)
(0.00187223 -5.18299 0)
(0.00127454 -5.16811 0)
(0.00107008 -5.13423 0)
(0.0015021 -5.05583 0)
(-0.00140029 -4.84051 0)