# vtk DataFile Version 2.0
track0
ASCII
DATASET POLYDATA
POINTS 12130 float
-0.0205 0.001 1e-05
-0.02049 0.0011 1e-05
-0.0204799 0.00119999 1e-05
-0.0204696 0.00129996 1e-05
-0.0204592 0.00139993 1e-05
-0.0204487 0.0015 1e-05
-0.0204381 0.0016 1e-05
-0.0204273 0.00169998 1e-05
-0.0204163 0.00179995 1e-05
-0.0204052 0.0018999 1e-05
-0.0203939 0.002 1e-05
-0.0203825 0.0021 1e-05
-0.0203709 0.00219998 1e-05
-0.020359 0.00229993 1e-05
-0.020347 0.00239987 1e-05
-0.0203348 0.0025 1e-05
-0.0203249 0.00257956 1e-05
-0.0203149 0.00265911 1e-05
-0.0203047 0.00273863 1e-05
-0.0202945 0.00281814 1e-05
-0.0202854 0.00288718 1e-05
-0.0202824 0.00290975 1e-05
-0.0202794 0.00293231 1e-05
-0.0202764 0.00295487 1e-05
-0.0202734 0.00297743 1e-05
-0.0202703 0.003 1e-05
-0.0202568 0.0031 1e-05
-0.020243 0.00319997 1e-05
-0.020229 0.0032999 1e-05
-0.0202148 0.0033998 1e-05
-0.0202003 0.0035 1e-05
-0.0201856 0.0036 1e-05
-0.0201706 0.00369996 1e-05
-0.0201554 0.00379989 1e-05
-0.0201399 0.00389977 1e-05
-0.0201241 0.004 1e-05
-0.020108 0.0041 1e-05
-0.0200918 0.00419996 1e-05
-0.0200752 0.00429987 1e-05
-0.0200584 0.00439974 1e-05
-0.0200412 0.0045 1e-05
-0.0200374 0.00452173 1e-05
-0.0200336 0.00454346 1e-05
-0.0200298 0.00456518 1e-05
-0.020026 0.00458691 1e-05
-0.0200223 0.00460789 1e-05
-0.0200084 0.00468631 1e-05
-0.0199944 0.00476471 1e-05
-0.0199802 0.00484307 1e-05
-0.0199658 0.0049214 1e-05
-0.0199512 0.005 1e-05
-0.0199324 0.0051 1e-05
-0.0199133 0.00519995 1e-05
-0.0198939 0.00529984 1e-05
-0.0198742 0.00539967 1e-05
-0.0198542 0.0055 1e-05
-0.0198356 0.00559147 1e-05
-0.0198168 0.00568288 1e-05
-0.0197978 0.00577425 1e-05
-0.0197785 0.00586556 1e-05
-0.0197614 0.00594547 1e-05
-0.019759 0.00595638 1e-05
-0.0197566 0.00596728 1e-05
-0.0197543 0.00597819 1e-05
-0.0197519 0.00598909 1e-05
-0.0197495 0.006 1e-05
-0.0197277 0.0061 1e-05
-0.0197056 0.00619993 1e-05
-0.0196832 0.0062998 1e-05
-0.0196605 0.00639961 1e-05
-0.0196374 0.0065 1e-05
-0.019614 0.0066 1e-05
-0.0195903 0.00669993 1e-05
-0.0195663 0.00679979 1e-05
-0.0195421 0.00689957 1e-05
-0.0195173 0.007 1e-05
-0.0195144 0.00701185 1e-05
-0.0195114 0.00702371 1e-05
-0.0195084 0.00703556 1e-05
-0.0195054 0.00704741 1e-05
-0.0195025 0.00705909 1e-05
-0.0194803 0.00714727 1e-05
-0.0194579 0.00723539 1e-05
-0.0194352 0.00732345 1e-05
-0.0194123 0.00741145 1e-05
-0.019389 0.0075 1e-05
-0.0193624 0.0076 1e-05
-0.0193355 0.00769992 1e-05
-0.0193082 0.00779975 1e-05
-0.0192807 0.00789949 1e-05
-0.0192526 0.008 1e-05
-0.0192512 0.00800484 1e-05
-0.0192499 0.00800969 1e-05
-0.0192485 0.00801453 1e-05
-0.0192471 0.00801938 1e-05
-0.0192457 0.00802419 1e-05
-0.0192187 0.00811935 1e-05
-0.0191914 0.00821443 1e-05
-0.0191639 0.00830943 1e-05
-0.019136 0.00840434 1e-05
-0.0191076 0.0085 1e-05
-0.0190843 0.00857768 1e-05
-0.0190608 0.0086553 1e-05
-0.0190371 0.00873286 1e-05
-0.0190132 0.00881036 1e-05
-0.018991 0.00888157 1e-05
-0.0189836 0.00890526 1e-05
-0.0189762 0.00892894 1e-05
-0.0189687 0.00895261 1e-05
-0.0189612 0.00897628 1e-05
-0.0189537 0.009 1e-05
-0.0189219 0.0091 1e-05
-0.0188898 0.0091999 1e-05
-0.0188574 0.00929969 1e-05
-0.0188246 0.00939937 1e-05
-0.0187912 0.0095 1e-05
-0.0187806 0.00953143 1e-05
-0.01877 0.00956285 1e-05
-0.0187594 0.00959427 1e-05
-0.0187488 0.00962566 1e-05
-0.0187384 0.00965609 1e-05
-0.0187149 0.00972487 1e-05
-0.0186912 0.0097936 1e-05
-0.0186674 0.00986227 1e-05
-0.0186434 0.00993089 1e-05
-0.0186191 0.01 1e-05
-0.0185929 0.0100741 1e-05
-0.0185664 0.0101481 1e-05
-0.0185398 0.0102221 1e-05
-0.0185129 0.010296 1e-05
-0.0184878 0.0103648 1e-05
-0.0184778 0.0103918 1e-05
-0.0184678 0.0104188 1e-05
-0.0184578 0.0104459 1e-05
-0.0184478 0.0104729 1e-05
-0.0184377 0.0105 1e-05
-0.0184003 0.0106 1e-05
-0.0183626 0.0106999 1e-05
-0.0183245 0.0107996 1e-05
-0.0182862 0.0108992 1e-05
-0.0182469 0.011 1e-05
-0.0182454 0.0110039 1e-05
-0.0182438 0.0110079 1e-05
-0.0182423 0.0110118 1e-05
-0.0182407 0.0110157 1e-05
-0.0182392 0.0110197 1e-05
-0.0182013 0.0111157 1e-05
-0.0181631 0.0112117 1e-05
-0.0181246 0.0113075 1e-05
-0.0180858 0.0114032 1e-05
-0.0180462 0.0115 1e-05
-0.0180354 0.0115259 1e-05
-0.0180247 0.0115518 1e-05
-0.0180139 0.0115777 1e-05
-0.0180032 0.0116036 1e-05
-0.0179926 0.0116289 1e-05
-0.0179615 0.0117031 1e-05
-0.0179302 0.0117772 1e-05
-0.0178987 0.0118513 1e-05
-0.017867 0.0119253 1e-05
-0.0178348 0.012 1e-05
-0.0178175 0.01204 1e-05
-0.0178 0.0120799 1e-05
-0.0177825 0.0121199 1e-05
-0.017765 0.0121598 1e-05
-0.017748 0.0121983 1e-05
-0.0177213 0.0122587 1e-05
-0.0176944 0.0123189 1e-05
-0.0176674 0.0123792 1e-05
-0.0176403 0.0124393 1e-05
-0.0176128 0.0125 1e-05
-0.0175913 0.0125471 1e-05
-0.0175697 0.0125942 1e-05
-0.0175481 0.0126413 1e-05
-0.0175264 0.0126883 1e-05
-0.0175053 0.0127335 1e-05
-0.0174805 0.0127868 1e-05
-0.0174555 0.0128401 1e-05
-0.0174305 0.0128933 1e-05
-0.0174053 0.0129464 1e-05
-0.0173798 0.013 1e-05
-0.0173568 0.0130482 1e-05
-0.0173337 0.0130963 1e-05
-0.0173105 0.0131444 1e-05
-0.0172872 0.0131924 1e-05
-0.0172647 0.0132387 1e-05
-0.0172391 0.0132909 1e-05
-0.0172134 0.0133432 1e-05
-0.0171877 0.0133953 1e-05
-0.0171618 0.0134474 1e-05
-0.0171356 0.0135 1e-05
-0.0171137 0.0135438 1e-05
-0.0170917 0.0135875 1e-05
-0.0170696 0.0136312 1e-05
-0.0170474 0.0136749 1e-05
-0.0170259 0.0137171 1e-05
-0.016997 0.0137737 1e-05
-0.0169679 0.0138302 1e-05
-0.0169388 0.0138866 1e-05
-0.0169095 0.013943 1e-05
-0.0168797 0.014 1e-05
-0.0168616 0.0140345 1e-05
-0.0168434 0.014069 1e-05
-0.0168252 0.0141035 1e-05
-0.016807 0.014138 1e-05
-0.0167891 0.0141715 1e-05
-0.0167541 0.0142372 1e-05
-0.0167189 0.0143028 1e-05
-0.0166835 0.0143684 1e-05
-0.016648 0.0144338 1e-05
-0.0166118 0.0145 1e-05
-0.0166003 0.014521 1e-05
-0.0165888 0.0145419 1e-05
-0.0165772 0.0145629 1e-05
-0.0165656 0.0145839 1e-05
-0.0165542 0.0146045 1e-05
-0.0165103 0.0146836 1e-05
-0.0164662 0.0147626 1e-05
-0.0164218 0.0148414 1e-05
-0.0163772 0.0149201 1e-05
-0.0163316 0.015 1e-05
-0.0163295 0.0150036 1e-05
-0.0163274 0.0150073 1e-05
-0.0163253 0.0150109 1e-05
-0.0163233 0.0150145 1e-05
-0.0163212 0.0150182 1e-05
-0.0162749 0.0150984 1e-05
-0.0162285 0.0151786 1e-05
-0.0161817 0.0152586 1e-05
-0.0161347 0.0153384 1e-05
-0.01609 0.0154139 1e-05
-0.0160797 0.0154311 1e-05
-0.0160695 0.0154483 1e-05
-0.0160592 0.0154655 1e-05
-0.0160488 0.0154827 1e-05
-0.0160385 0.0155 1e-05
-0.0160029 0.0155591 1e-05
-0.0159672 0.0156182 1e-05
-0.0159314 0.0156771 1e-05
-0.0158955 0.015736 1e-05
-0.0158607 0.0157925 1e-05
-0.0158351 0.015834 1e-05
-0.0158095 0.0158755 1e-05
-0.0157837 0.0159169 1e-05
-0.0157579 0.0159582 1e-05
-0.0157318 0.016 1e-05
-0.0157121 0.0160313 1e-05
-0.0156923 0.0160626 1e-05
-0.0156726 0.0160939 1e-05
-0.0156528 0.0161251 1e-05
-0.0156333 0.0161557 1e-05
-0.0155894 0.0162246 1e-05
-0.0155454 0.0162933 1e-05
-0.0155011 0.0163619 1e-05
-0.0154567 0.0164304 1e-05
-0.0154112 0.0165 1e-05
-0.0154105 0.0165011 1e-05
-0.0154098 0.0165021 1e-05
-0.0154091 0.0165032 1e-05
-0.0154084 0.0165043 1e-05
-0.0154077 0.0165053 1e-05
-0.015363 0.0165734 1e-05
-0.015318 0.0166414 1e-05
-0.0152729 0.0167093 1e-05
-0.0152276 0.016777 1e-05
-0.0151839 0.0168418 1e-05
-0.0151625 0.0168735 1e-05
-0.0151411 0.0169051 1e-05
-0.0151196 0.0169366 1e-05
-0.015098 0.0169682 1e-05
-0.0150763 0.017 1e-05
-0.0150534 0.0170333 1e-05
-0.0150305 0.0170666 1e-05
-0.0150075 0.0170998 1e-05
-0.0149845 0.017133 1e-05
-0.0149619 0.0171656 1e-05
-0.0149179 0.0172288 1e-05
-0.0148737 0.0172919 1e-05
-0.0148293 0.017355 1e-05
-0.0147848 0.0174179 1e-05
-0.0147417 0.0174783 1e-05
-0.0147386 0.0174827 1e-05
-0.0147356 0.017487 1e-05
-0.0147325 0.0174913 1e-05
-0.0147293 0.0174957 1e-05
-0.0147262 0.0175 1e-05
-0.0146857 0.0175566 1e-05
-0.0146449 0.0176131 1e-05
-0.0146041 0.0176695 1e-05
-0.0145631 0.0177259 1e-05
-0.0145233 0.0177803 1e-05
-0.014491 0.0178242 1e-05
-0.0144587 0.0178681 1e-05
-0.0144263 0.0179119 1e-05
-0.0143937 0.0179557 1e-05
-0.0143607 0.018 1e-05
-0.0143499 0.0180144 1e-05
-0.0143391 0.0180289 1e-05
-0.0143283 0.0180433 1e-05
-0.0143174 0.0180577 1e-05
-0.0143067 0.018072 1e-05
-0.0142637 0.0181291 1e-05
-0.0142206 0.018186 1e-05
-0.0141773 0.0182429 1e-05
-0.0141339 0.0182996 1e-05
-0.0140917 0.0183545 1e-05
-0.0140693 0.0183836 1e-05
-0.0140468 0.0184127 1e-05
-0.0140243 0.0184417 1e-05
-0.0140017 0.0184707 1e-05
-0.0139789 0.0185 1e-05
-0.0139588 0.0185257 1e-05
-0.0139387 0.0185513 1e-05
-0.0139186 0.0185769 1e-05
-0.0138985 0.0186025 1e-05
-0.0138786 0.0186278 1e-05
-0.0138363 0.0186813 1e-05
-0.0137939 0.0187347 1e-05
-0.0137513 0.018788 1e-05
-0.0137087 0.0188413 1e-05
-0.0136671 0.0188929 1e-05
-0.0136498 0.0189143 1e-05
-0.0136324 0.0189357 1e-05
-0.0136151 0.0189571 1e-05
-0.0135977 0.0189785 1e-05
-0.0135802 0.019 1e-05
-0.0135556 0.0190301 1e-05
-0.013531 0.0190602 1e-05
-0.0135064 0.0190903 1e-05
-0.0134817 0.0191203 1e-05
-0.0134573 0.0191498 1e-05
-0.0134157 0.0192002 1e-05
-0.013374 0.0192504 1e-05
-0.0133322 0.0193006 1e-05
-0.0132902 0.0193507 1e-05
-0.0132493 0.0193994 1e-05
-0.0132323 0.0194195 1e-05
-0.0132153 0.0194396 1e-05
-0.0131983 0.0194597 1e-05
-0.0131812 0.0194798 1e-05
-0.0131641 0.0195 1e-05
-0.0131398 0.0195285 1e-05
-0.0131155 0.0195569 1e-05
-0.0130912 0.0195853 1e-05
-0.0130669 0.0196137 1e-05
-0.0130429 0.0196416 1e-05
-0.0130019 0.0196891 1e-05
-0.0129609 0.0197366 1e-05
-0.0129197 0.0197839 1e-05
-0.0128785 0.0198312 1e-05
-0.0128381 0.0198773 1e-05
-0.0128165 0.0199018 1e-05
-0.0127949 0.0199263 1e-05
-0.0127733 0.0199508 1e-05
-0.0127516 0.0199753 1e-05
-0.0127297 0.02 1e-05
-0.0127108 0.0200213 1e-05
-0.0126918 0.0200426 1e-05
-0.0126729 0.0200639 1e-05
-0.0126539 0.0200852 1e-05
-0.012635 0.0201062 1e-05
-0.0125947 0.0201511 1e-05
-0.0125544 0.020196 1e-05
-0.0125139 0.0202408 1e-05
-0.0124734 0.0202855 1e-05
-0.0124336 0.0203291 1e-05
-0.0124024 0.0203633 1e-05
-0.0123711 0.0203974 1e-05
-0.0123398 0.0204315 1e-05
-0.0123084 0.0204656 1e-05
-0.0122766 0.0205 1e-05
-0.012268 0.0205092 1e-05
[...]
POINT_DATA 12130
 FIELD attributes 1
U 3 12130 float
-0.02849 	-0.28464 	0 -0.0288395 	-0.284618 	0 -0.0291898 	-0.284594 	0 -0.0295395 	-0.284569 	0 -0.0298892 	-0.284543 	0 -0.0302422 	-0.284517 	0 -0.0307004 	-0.284485 	0 -0.0311609 	-0.284453 	0 -0.0316195 	-0.284418 	0 -0.0320765 	-0.284383 	0 -0.0325368 	-0.284346 	0 -0.0330832 	-0.284302 	0 -0.0336316 	-0.284256 	0 -0.0341798 	-0.28421 	0 -0.0347271 	-0.284162 	0 -0.0352746 	-0.284112 	0 -0.0357652 	-0.284066 	0 -0.0362572 	-0.284018 	0 -0.0367492 	-0.28397 	0 -0.037241 	-0.283921 	0 -0.0376697 	-0.283878 	0 -0.0378079 	-0.283864 	0 -0.0379477 	-0.283849 	0 -0.0380875 	-0.283835 	0 -0.0382272 	-0.283821 	0 -0.0383687 	-0.283806 	0 -0.0390438 	-0.283733 	0 -0.0397185 	-0.283657 	0 -0.0403929 	-0.283581 	0 -0.0410672 	-0.283503 	0 -0.0417447 	-0.283424 	0 -0.0424653 	-0.283335 	0 -0.0431867 	-0.283245 	0 -0.0439049 	-0.283152 	0 -0.0446219 	-0.283058 	0 -0.0453425 	-0.282962 	0 -0.0460962 	-0.282857 	0 -0.0468504 	-0.28275 	0 -0.0476044 	-0.282642 	0 -0.048358 	-0.282532 	0 -0.0491135 	-0.282419 	0 -0.0492824 	-0.282393 	0 -0.0494518 	-0.282366 	0 -0.0496212 	-0.28234 	0 -0.0497906 	-0.282313 	0 -0.0499549 	-0.282287 	0 -0.050567 	-0.28219 	0 -0.0511795 	-0.282092 	0 -0.0517919 	-0.281993 	0 -0.052404 	-0.281893 	0 -0.053019 	-0.281792 	0 -0.0538227 	-0.281654 	0 -0.0546266 	-0.281515 	0 -0.0554273 	-0.281373 	0 -0.0562272 	-0.281229 	0 -0.0570316 	-0.281083 	0 -0.0577809 	-0.280942 	0 -0.0585302 	-0.280799 	0 -0.0592792 	-0.280655 	0 -0.0600279 	-0.28051 	0 -0.0606836 	-0.280382 	0 -0.0607729 	-0.280364 	0 -0.0608624 	-0.280346 	0 -0.060952 	-0.280329 	0 -0.0610417 	-0.280311 	0 -0.0611317 	-0.280293 	0 -0.0619662 	-0.280123 	0 -0.0627995 	-0.27995 	0 -0.0636325 	-0.279775 	0 -0.0644651 	-0.2796 	0 -0.0653032 	-0.279421 	0 -0.0661501 	-0.279235 	0 -0.0669968 	-0.279047 	0 -0.0678431 	-0.278857 	0 -0.068689 	-0.278666 	0 -0.0695394 	-0.278471 	0 -0.0696408 	-0.278447 	0 -0.0697423 	-0.278423 	0 -0.0698438 	-0.278399 	0 -0.0699453 	-0.278375 	0 -0.0700456 	-0.278351 	0 -0.0708024 	-0.278171 	0 -0.071559 	-0.27799 	0 -0.0723154 	-0.277808 	0 -0.0730714 	-0.277625 	0 -0.0738326 	-0.277439 	0 -0.0747019 	-0.277221 	0 -0.0755709 	-0.277002 	0 -0.0764395 	-0.276781 	0 -0.0773076 	-0.276559 	0 -0.0781821 	-0.276332 	0 -0.0782245 	-0.276321 	0 -0.078267 	-0.27631 	0 -0.0783096 	-0.276298 	0 -0.0783522 	-0.276287 	0 -0.0783946 	-0.276276 	0 -0.0792317 	-0.276053 	0 -0.0800687 	-0.275829 	0 -0.0809052 	-0.275603 	0 -0.0817412 	-0.275376 	0 -0.0825843 	-0.275146 	0 -0.0832758 	-0.274953 	0 -0.0839671 	-0.274759 	0 -0.0846582 	-0.274564 	0 -0.0853489 	-0.274368 	0 -0.0859839 	-0.274187 	0 -0.0861953 	-0.274127 	0 -0.086407 	-0.274066 	0 -0.0866186 	-0.274006 	0 -0.0868301 	-0.273945 	0 -0.0870423 	-0.273884 	0 -0.0879449 	-0.273621 	0 -0.088847 	-0.273357 	0 -0.089747 	-0.27309 	0 -0.0906464 	-0.272821 	0 -0.0915549 	-0.272548 	0 -0.0918413 	-0.272461 	0 -0.0921278 	-0.272373 	0 -0.0924143 	-0.272285 	0 -0.0927007 	-0.272197 	0 -0.0929784 	-0.272111 	0 -0.0936071 	-0.271918 	0 -0.0942357 	-0.271724 	0 -0.094864 	-0.271529 	0 -0.095492 	-0.271334 	0 -0.0961249 	-0.271136 	0 -0.0968097 	-0.270919 	0 -0.0974944 	-0.270701 	0 -0.0981787 	-0.270482 	0 -0.0988626 	-0.270263 	0 -0.0994995 	-0.270058 	0 -0.0997504 	-0.269977 	0 -0.100001 	-0.269896 	0 -0.100252 	-0.269815 	0 -0.100503 	-0.269734 	0 -0.100755 	-0.269652 	0 -0.101693 	-0.269345 	0 -0.102629 	-0.269037 	0 -0.103566 	-0.268727 	0 -0.104501 	-0.268415 	0 -0.105447 	-0.268098 	0 -0.105484 	-0.268085 	0 -0.105522 	-0.268072 	0 -0.105559 	-0.26806 	0 -0.105596 	-0.268047 	0 -0.105634 	-0.268034 	0 -0.106546 	-0.267725 	0 -0.107458 	-0.267415 	0 -0.10837 	-0.267103 	0 -0.109281 	-0.266789 	0 -0.110203 	-0.26647 	0 -0.110452 	-0.266384 	0 -0.110701 	-0.266296 	0 -0.11095 	-0.266209 	0 -0.111199 	-0.266122 	0 -0.111443 	-0.266036 	0 -0.112159 	-0.265785 	0 -0.112874 	-0.265534 	0 -0.11359 	-0.265282 	0 -0.114304 	-0.265029 	0 -0.115027 	-0.264772 	0 -0.115417 	-0.264632 	0 -0.115807 	-0.264492 	0 -0.116197 	-0.264352 	0 -0.116587 	-0.264211 	0 -0.116964 	-0.264075 	0 -0.117555 	-0.263863 	0 -0.118145 	-0.263649 	0 -0.118736 	-0.263436 	0 -0.119326 	-0.263222 	0 -0.119921 	-0.263005 	0 -0.120388 	-0.262833 	0 -0.120855 	-0.262662 	0 -0.121322 	-0.26249 	0 -0.121788 	-0.262318 	0 -0.122237 	-0.262152 	0 -0.122767 	-0.261956 	0 -0.123297 	-0.261761 	0 -0.123826 	-0.261565 	0 -0.124355 	-0.261368 	0 -0.124889 	-0.261169 	0 -0.125373 	-0.260988 	0 -0.125858 	-0.260806 	0 -0.126342 	-0.260624 	0 -0.126826 	-0.260442 	0 -0.127292 	-0.260266 	0 -0.12782 	-0.260067 	0 -0.128347 	-0.259868 	0 -0.128874 	-0.259669 	0 -0.129401 	-0.259469 	0 -0.129933 	-0.259267 	0 -0.13038 	-0.259097 	0 -0.130827 	-0.258926 	0 -0.131274 	-0.258755 	0 -0.13172 	-0.258583 	0 -0.132152 	-0.258417 	0 -0.132732 	-0.258195 	0 -0.133312 	-0.257973 	0 -0.133892 	-0.25775 	0 -0.134471 	-0.257527 	0 -0.135056 	-0.2573 	0 -0.135414 	-0.257162 	0 -0.135772 	-0.257022 	0 -0.13613 	-0.256883 	0 -0.136488 	-0.256743 	0 -0.136837 	-0.256607 	0 -0.137521 	-0.256342 	0 -0.138205 	-0.256076 	0 -0.138888 	-0.255809 	0 -0.13957 	-0.255542 	0 -0.140261 	-0.25527 	0 -0.140482 	-0.255183 	0 -0.140703 	-0.255096 	0 -0.140925 	-0.255009 	0 -0.141146 	-0.254921 	0 -0.141364 	-0.254835 	0 -0.1422 	-0.254507 	0 -0.143036 	-0.254178 	0 -0.14387 	-0.253848 	0 -0.144704 	-0.253517 	0 -0.145552 	-0.253179 	0 -0.145591 	-0.253164 	0 -0.14563 	-0.253148 	0 -0.145669 	-0.253133 	0 -0.145708 	-0.253117 	0 -0.145747 	-0.253102 	0 -0.146609 	-0.25276 	0 -0.147469 	-0.252417 	0 -0.148329 	-0.252073 	0 -0.149187 	-0.251727 	0 -0.15 	-0.2514 	0 -0.150185 	-0.251325 	0 -0.150371 	-0.251251 	0 -0.150557 	-0.251176 	0 -0.150742 	-0.251101 	0 -0.150929 	-0.251026 	0 -0.151574 	-0.250767 	0 -0.152218 	-0.250507 	0 -0.152862 	-0.250247 	0 -0.153505 	-0.249987 	0 -0.154123 	-0.249735 	0 -0.154578 	-0.249552 	0 -0.155032 	-0.249368 	0 -0.155486 	-0.249185 	0 -0.15594 	-0.249 	0 -0.156398 	-0.248814 	0 -0.156745 	-0.248673 	0 -0.157093 	-0.248532 	0 -0.15744 	-0.248391 	0 -0.157787 	-0.248249 	0 -0.158127 	-0.24811 	0 -0.158893 	-0.2478 	0 -0.159658 	-0.247489 	0 -0.160423 	-0.247178 	0 -0.161186 	-0.246866 	0 -0.161963 	-0.246548 	0 -0.161975 	-0.246543 	0 -0.161987 	-0.246538 	0 -0.161999 	-0.246533 	0 -0.162011 	-0.246528 	0 -0.162023 	-0.246523 	0 -0.162792 	-0.24621 	0 -0.16356 	-0.245896 	0 -0.164327 	-0.245581 	0 -0.165093 	-0.245265 	0 -0.165826 	-0.244962 	0 -0.166185 	-0.244815 	0 -0.166544 	-0.244668 	0 -0.166902 	-0.244521 	0 -0.16726 	-0.244373 	0 -0.167622 	-0.244224 	0 -0.168004 	-0.244067 	0 -0.168386 	-0.24391 	0 -0.168769 	-0.243752 	0 -0.169151 	-0.243595 	0 -0.169525 	-0.24344 	0 -0.170254 	-0.243142 	0 -0.170982 	-0.242844 	0 -0.171709 	-0.242545 	0 -0.172435 	-0.242245 	0 -0.173133 	-0.241955 	0 -0.173183 	-0.241934 	0 -0.173233 	-0.241914 	0 -0.173283 	-0.241893 	0 -0.173333 	-0.241872 	0 -0.173383 	-0.241851 	0 -0.174045 	-0.241579 	0 -0.174706 	-0.241306 	0 -0.175366 	-0.241033 	0 -0.176026 	-0.240759 	0 -0.176663 	-0.240494 	0 -0.177179 	-0.240282 	0 -0.177695 	-0.240069 	0 -0.17821 	-0.239857 	0 -0.178724 	-0.239644 	0 -0.179245 	-0.239428 	0 -0.179417 	-0.239357 	0 -0.179589 	-0.239286 	0 -0.17976 	-0.239215 	0 -0.179932 	-0.239143 	0 -0.180103 	-0.239073 	0 -0.180783 	-0.238795 	0 -0.181463 	-0.238516 	0 -0.18214 	-0.238234 	0 -0.182817 	-0.237952 	0 -0.183472 	-0.237678 	0 -0.18382 	-0.237535 	0 -0.184167 	-0.237391 	0 -0.184515 	-0.237247 	0 -0.184862 	-0.237103 	0 -0.185213 	-0.236958 	0 -0.185523 	-0.236829 	0 -0.185834 	-0.236701 	0 -0.186145 	-0.236572 	0 -0.186455 	-0.236444 	0 -0.186762 	-0.236317 	0 -0.187412 	-0.236051 	0 -0.188062 	-0.235785 	0 -0.18871 	-0.235518 	0 -0.189356 	-0.235248 	0 -0.189984 	-0.234985 	0 -0.190244 	-0.234878 	0 -0.190504 	-0.23477 	0 -0.190765 	-0.234662 	0 -0.191025 	-0.234554 	0 -0.191287 	-0.234446 	0 -0.191659 	-0.234293 	0 -0.19203 	-0.23414 	0 -0.192401 	-0.233986 	0 -0.192772 	-0.233833 	0 -0.193137 	-0.233682 	0 -0.193759 	-0.233428 	0 -0.194382 	-0.233174 	0 -0.195003 	-0.23292 	0 -0.195622 	-0.232661 	0 -0.196224 	-0.232409 	0 -0.196473 	-0.232307 	0 -0.196722 	-0.232204 	0 -0.196971 	-0.232102 	0 -0.19722 	-0.231999 	0 -0.19747 	-0.231895 	0 -0.197827 	-0.231749 	0 -0.198185 	-0.231602 	0 -0.198542 	-0.231455 	0 -0.198898 	-0.231308 	0 -0.19925 	-0.231163 	0 -0.199848 	-0.230921 	0 -0.200446 	-0.230678 	0 -0.201042 	-0.230434 	0 -0.201636 	-0.230187 	0 -0.202216 	-0.229945 	0 -0.202525 	-0.229819 	0 -0.202834 	-0.229692 	0 -0.203143 	-0.229565 	0 -0.203451 	-0.229439 	0 -0.203763 	-0.22931 	0 -0.204035 	-0.229199 	0 -0.204307 	-0.229088 	0 -0.204579 	-0.228977 	0 -0.204851 	-0.228865 	0 -0.205121 	-0.228755 	0 -0.205697 	-0.228524 	0 -0.206272 	-0.228292 	0 -0.206844 	-0.228056 	0 -0.207416 	-0.22782 	0 -0.207975 	-0.227589 	0 -0.208412 	-0.227411 	0 -0.20885 	-0.227233 	0 -0.209287 	-0.227055 	0 -0.209723 	-0.226877 	0 -0.210166 	-0.226696 	0 -0.210285 	-0.226648 	0 -0.210406 	-0.226599 	0 -0.210526 	-0.22655 	0 -0.210646 	-0.226501 	0 -0.210766 	-0.226453 	0 -0.21132 	-0.226232 	0 -0.211873 	-0.226007 	0 -0.212425 	-0.225781 	0 -0.212976 	-0.225556 	0 -0.213517 	-0.225335 	0 -0.214057 	-0.225118 	0 -0.214597 	-0.224901 	0 -0.215137 	-0.224683 	0 -0.215676 	-0.224466 	0 -0.216203 	-0.224249 	0 -0.216298 	-0.224211 	0 -0.216392 	-0.224173 	0 -0.216487 	-0.224134 	0 -0.216582 	-0.224096 	0 -0.216677 	-0.224057 	0 -0.217114 	-0.223881 	0 -0.217551 	-0.223706 	0 -0.217987 	-0.22353 	0 -0.218423 	-0.223354 	0 -0.218852 	-0.22318 	0 -0.219375 	-0.222974 	0 -0.219898 	-0.222767 	0 -0.220419 	-0.222559 	0 -0.220937 	-0.222347 	0 -0.221447 	-0.222139 	0 -0.221816 	-0.221991 	0 -0.222186 	-0.221844 	0 -0.222554 	-0.221696 	0 -0.222923 	-0.221548 	0 -0.223296 	-0.221398 	0 -0.223434 	-0.221343 	0 -0.223573 	-0.221288 	0 -0.223712 	-0.221233 	0 -0.223851 	-0.221177 	0 -0.22399 	-0.221122 	0 -0.224496 	-0.220925 	0 -0.225 	-0.220724 	0 -0.225503 	-0.220522 	0 -0.226006 	-0.22032 	0 -0.226501 	-0.220121 	0 -0.226994 	-0.219928 	0 -0.227487 	-0.219734 	0 -0.22798 	-0.219541 	0 -0.228472 	-0.219346 	0 -0.228954 	-0.219149 	0 -0.229166 	-0.219065 	0 -0.229379 	-0.21898 	0 -0.229592 	-0.218896 	0 -0.229804 	-0.218812 	0 -0.230019 	-0.218726 	0 -0.230289 	-0.21862 	0 -0.23056 	-0.218514 	0 -0.23083 	-0.218407 	0 -0.231101 	-0.2183 	0 -0.231369 	-0.218195 	0 -0.231848 	-0.218011 	0 -0.232326 	-0.217825 	0 -0.232802 	-0.217636 	0 -0.233277 	-0.217446 	0 -0.233746 	-0.217259 	0 -0.234213 	-0.217078 	0 -0.23468 	-0.216897 	0 -0.235147 	-0.216715 	0 -0.235613 	-0.216533 	0 -0.23607 	-0.216349 	0 -0.236224 	-0.216289 	0 -0.236378 	-0.216228 	0 -0.236532 	-0.216168 	0 -0.236686 	-0.216107 	0 -0.236841 	-0.216046 	0 -0.237146 	-0.215928 	0 -0.237451 	-0.215809 	0 -0.237756 	-0.215691 	0 -0.238061 	-0.215572 	0 -0.238363 	-0.215454 	0 -0.238818 	-0.215283 	0 -0.239271 	-0.215109 	0 -0.239722 	-0.214931 	0 -0.240173 	-0.214754 	0 -0.240618 	-0.214578 	0 -0.241061 	-0.214409 	0 -0.241504 	-0.214239 	0 -0.241946 	-0.214069 	0 -0.242388 	-0.213899 	0 -0.242823 	-0.213726 	0 -0.243008 	-0.213654 	0 -0.243194 	-0.213582 	0 -0.243379 	-0.21351 	0 -0.243565 	-0.213437 	0 -0.243752 	-0.213365 	0 -0.244001 	-0.213269 	0 -0.244251 	-0.213174 	0 -0.2445 	-0.213078 	0 -0.244749 	-0.212983 	0 -0.244997 	-0.212888 	0 -0.245429 	-0.212728 	0 -0.245858 	-0.212564 	0 -0.246287 	-0.212398 	0 -0.246715 	-0.212231 	0 -0.247139 	-0.212067 	0 -0.24756 	-0.211909 	0 -0.247981 	-0.21175 	0 -0.248401 	-0.211592 	0 -0.24882 	-0.21143 	0 -0.249234 	-0.211267 	0 -0.249535 	-0.211152 	0 -0.249836 	-0.211037 	0 -0.250138 	-0.210922 	0 -0.250438 	-0.210807 	0 -0.250743 	-0.21069 	0 -0.250852 	-0.210649 	0 -0.250961 	-0.210608 	0 -0.251071 	-0.210567 	0 -0.25118 	-0.210526 	0 -0.25129 	-0.210485 	0 -0.2517 	-0.210333 	0 -0.252108 	-0.210178 	0 -0.252516 	-0.210023 	0 -0.252924 	-0.209867 	0 -0.253328 	-0.209713 	0 -0.253728 	-0.209566 	0 -0.254129 	-0.209419 	0 -0.254528 	-0.209269 	0 -0.254926 	-0.209115 	0 -0.25532 	-0.208962 	0 -0.255711 	-0.208816 	0 -0.256102 	-0.20867 	0 -0.256492 	-0.208524 	0 -0.256882 	-0.208378 	0 -0.257268 	-0.20823 	0 -0.257373 	-0.208189 	0 -0.257478 	-0.208149 	0 -0.257584 	-0.208109 	0 -0.257689 	-0.208069 	0 -0.257796 	-0.208029 	0 -0.258076 	-0.207925 	0 -0.258357 	-0.20782 	0 -0.258638 	-0.207716 	0 -0.258918 	-0.207611 	0 -0.259198 	-0.207507 	0 -0.25958 	-0.207371 	0 -0.25996 	-0.20723 	0 -0.26034 	-0.207086 	0 -0.260719 	-0.206943 	0 -0.261095 	-0.2068 	0 -0.261468 	-0.206665 	0 -0.261841 	-0.206529 	0 -0.262213 	-0.206394 	0 -0.262583 	-0.206252 	0 -0.26295 	-0.206111 	0 -0.263314 	-0.205976 	0 -0.263677 	-0.205842 	0 -0.26404 	-0.205707 	0 -0.264403 	-0.205572 	0 -0.264763 	-0.205438 	0 -0.264788 	-0.205428 	0 -0.264814 	-0.205418 	0 -0.26484 	-0.205409 	0 -0.264867 	-0.205399 	0 -0.264893 	-0.205389 	0 -0.265229 	-0.205266 	0 -0.265565 	-0.205142 	0 -0.2659 	-0.205019 	0 -0.266236 	-0.204895 	0 -0.266569 	-0.204773 	0 -0.266925 	-0.204648 	0 -0.26728 	-0.20452 	0 -0.267634 	-0.204388 	0 -0.267987 	-0.204255 	0 -0.268338 	-0.204124 	0 -0.268684 	-0.204 	0 -0.269031 	-0.203876 	0 -0.269378 	-0.203752 	0 -0.269723 	-0.203622 	0 -0.270065 	-0.203491 	0 -0.270403 	-0.203368 	0 -0.270742 	-0.203244 	0 -0.27108 	-0.203121 	0 -0.271417 	-0.202998 	0 -0.271753 	-0.202873 	0 -0.271802 	-0.202855 	0 -0.271852 	-0.202836 	0 -0.271902 	-0.202818 	0 -0.271952 	-0.202799 	0 -0.272003 	-0.20278 	0 -0.272289 	-0.202677 	0 -0.272576 	-0.202574 	0 -0.272863 	-0.202471 	0 -0.273149 	-0.202368 	0 -0.273434 	-0.202265 	0 -0.273765 	-0.202152 	0 -0.274096 	-0.202034 	0 -0.274426 	-0.201913 	0 -0.274755 	-0.201792 	0 -0.275083 	-0.201672 	0 -0.275406 	-0.20156 	0 -0.275729 	-0.201448 	0 -0.276052 	-0.201334 	0 -0.276373 	-0.201214 	0 -0.276692 	-0.201094 	0 -0.277007 	-0.200983 	0 -0.277322 	-0.200872 	0 -0.277637 	-0.200761 	0 -0.277952 	-0.200649 	0 -0.278264 	-0.200533 	0 -0.278429 	-0.200473 	0 -0.278594 	-0.200414 	0 -0.27876 	-0.200354 	0 -0.278925 	-0.200295 	0 -0.279092 	-0.200235 	0 -0.279236 	-0.200185 	0 -0.279381 	-0.200135 	0 -0.279526 	-0.200084 	0 -0.27967 	-0.200034 	0 -0.279815 	-0.199984 	0 -0.280124 	-0.199881 	0 -0.280432 	-0.199773 	0 -0.280739 	-0.199665 	0 -0.281047 	-0.199556 	0 -0.281353 	-0.199449 	0 -0.281653 	-0.19935 	0 -0.281955 	-0.199252 	0 -0.282255 	-0.199145 	0 -0.282554 	-0.199038 	0 -0.282852 	-0.198932 	0 -0.283146 	-0.198835 	0 -0.283439 	-0.198738 	0 -0.283733 	-0.198641 	0 -0.284025 	-0.198539 	0 -0.284316 	-0.198434 	0 -0.284601 	-0.198339 	0 -0.284887 	-0.198244 	0 -0.285172 	-0.198149 	0 -0.285458 	-0.198054 	0 -0.285742 	-0.197957 	0 -0.285816 	-0.197932 	0 -0.28589 	-0.197907 	0 -0.285965 	-0.197882 	0 -0.286039 	-0.197858 	0 -0.286115 	-0.197833 	0 -0.286324 	-0.197766 	0 -0.286534 	-0.197699 	0 -0.286744 	-0.197632 	0 -0.286953 	-0.197564 	0 -0.287163 	-0.197498 	0 -0.287443 	-0.197417 	0 -0.287723 	-0.197328 	0 -0.288002 	-0.19724 	0 -0.288281 	-0.197151 	0 -0.28856 	-0.197062 	0 -0.288832 	-0.196986 	0 -0.289106 	-0.19691 	0 -0.289378 	-0.196826 	0 -0.28965 	-0.196741 	0 -0.289921 	-0.196656 	0 -0.290187 	-0.196584 	0 -0.290453 	-0.196512 	0 -0.290719 	-0.19644 	0 -0.290984 	-0.196363 	0 -0.291248 	-0.196283 	0 -0.291506 	-0.196216 	0 -0.291765 	-0.196149 	0 -0.292024 	-0.196083 	0 -0.292283 	-0.196016 	0 -0.292541 	-0.195946 	0 -0.292632 	-0.195924 	0 -0.292724 	-0.195902 	0 -0.292817 	-0.19588 	0 -0.292909 	-0.195858 	0 -0.293002 	-0.195837 	0 -0.293166 	-0.195799 	0 -0.293331 	-0.195762 	0 -0.293496 	-0.195725 	0 -0.293661 	-0.195688 	0 -0.293826 	-0.195652 	0 -0.294079 	-0.195608 	0 -0.294333 	-0.195558 	0 -0.294587 	-0.195508 	0 -0.294841 	-0.195458 	0 -0.295094 	-0.195408 	0 -0.295341 	-0.195377 	0 -0.295589 	-0.195345 	0 -0.295836 	-0.195305 	0 -0.296084 	-0.195264 	0 -0.296331 	-0.195225 	0 -0.296571 	-0.195205 	0 -0.296813 	-0.195187 	0 -0.297054 	-0.195168 	0 -0.297295 	-0.195139 	0 -0.297537 	-0.195111 	0 -0.297771 	-0.195106 	0 -0.298007 	-0.195101 	0 -0.298243 	-0.195097 	0 -0.298478 	-0.195092 	0 -0.298714 	-0.195079 	0 -0.298909 	-0.195089 	0 -0.299105 	-0.1951 	0 -0.299301 	-0.195111 	0 -0.299497 	-0.195121 	0 -0.299695 	-0.195133 	0 -0.299729 	-0.195135 	0 -0.299763 	-0.195137 	0 -0.299798 	-0.195139 	0 -0.299833 	-0.195141 	0 -0.299869 	-0.195145 	0 -0.300101 	-0.195182 	0 -0.300335 	-0.195218 	0 -0.300568 	-0.195255 	0 -0.300801 	-0.195291 	0 -0.301035 	-0.195329 	0 -0.301262 	-0.1954 	0 -0.30149 	-0.195463 	0 -0.301718 	-0.195524 	0 -0.301946 	-0.195584 	0 -0.302174 	-0.195645 	0 -0.302394 	-0.195745 	0 -0.302615 	-0.195847 	0 -0.302836 	-0.195938 	0 -0.303057 	-0.196027 	0 -0.303279 	-0.196116 	0 -0.303492 	-0.196249 	0 -0.303705 	-0.196383 	0 -0.303919 	-0.196518 	0 -0.304133 	-0.196643 	0 -0.304348 	-0.196765 	0 -0.304553 	-0.196936 	0 -0.304759 	-0.197109 	0 -0.304965 	-0.197281 	0 -0.305171 	-0.197454 	0 -0.305379 	-0.197618 	0 -0.305517 	-0.197768 	0 -0.305657 	-0.19792 	0 -0.305796 	-0.198072 	0 -0.305936 	-0.198224 	0 -0.306076 	-0.198377 	0 -0.306137 	-0.198442 	0 -0.3062 	-0.198508 	0 -0.306262 	-0.198574 	0 -0.306324 	-0.19864 	0 -0.306388 	-0.198708 	0 -0.306586 	-0.198982 	0 -0.306786 	-0.199253 	0 -0.306986 	-0.199525 	0 -0.307187 	-0.199796 	0 -0.307389 	-0.20007 	0 -0.307577 	-0.200414 	0 -0.307769 	-0.200748 	0 -0.307961 	-0.201077 	0 -0.308153 	-0.201406 	0 -0.308348 	-0.201738 	0 -0.308529 	-0.202148 	0 -0.308711 	-0.202561 	0 -0.308895 	-0.20296 	0 -0.309081 	-0.203354 	0 -0.309268 	-0.203752 	0 -0.309442 	-0.204236 	0 -0.309618 	-0.204723 	0 -0.309795 	-0.205209 	0 -0.309973 	-0.205682 	0 -0.310155 	-0.206154 	0 -0.310323 	-0.206721 	0 -0.310493 	-0.207291 	0 -0.310664 	-0.20786 	0 -0.310835 	-0.20843 	0 -0.311011 	-0.20899 	0 -0.311131 	-0.209474 	0 -0.311252 	-0.209961 	0 -0.311373 	-0.210447 	0 -0.311495 	-0.210934 	0 -0.311616 	-0.211417 	0 -0.311662 	-0.211593 	0 -0.311709 	-0.211772 	0 -0.311756 	-0.211951 	0 -0.311804 	-0.21213 	0 -0.311853 	-0.212313 	0 -0.312019 	-0.213088 	0 -0.312188 	-0.213859 	0 -0.312358 	-0.21463 	0 -0.312529 	-0.2154 	0 -0.312704 	-0.216181 	0 -0.312862 	-0.217089 	0 -0.313026 	-0.21798 	0 -0.313192 	-0.218863 	0 -0.313359 	-0.219745 	0 -0.31353 	-0.22064 	0 -0.313684 	-0.221673 	0 -0.31384 	-0.222709 	0 -0.314001 	-0.223722 	0 -0.314164 	-0.224726 	0 -0.314331 	-0.225747 	0 -0.31448 	-0.226914 	0 -0.314632 	-0.228084 	0 -0.314784 	-0.229253 	0 -0.314941 	-0.230399 	0 -0.315105 	-0.231556 	0 -0.315249 	-0.232867 	0 -0.315396 	-0.234182 	0 -0.315544 	-0.235495 	0 -0.315693 	-0.236806 	0 -0.315851 	-0.238123 	0 -0.31593 	-0.23896 	0 -0.316011 	-0.239802 	0 -0.316093 	-0.240642 	0 -0.316175 	-0.241482 	0 -0.316256 	-0.24231 	0 -0.316323 	-0.242945 	0 -0.31639 	-0.243587 	0 -0.316458 	-0.244227 	0 -0.316526 	-0.244868 	0 -0.316597 	-0.245519 	0 -0.316739 	-0.247185 	0 -0.316887 	-0.248833 	0 -0.317037 	-0.250479 	0 -0.317188 	-0.252121 	0 -0.317346 	-0.253805 	0 -0.317479 	-0.255671 	0 -0.317618 	-0.257521 	0 -0.317763 	-0.259339 	0 -0.31791 	-0.261154 	0 -0.318063 	-0.26302 	0 -0.318191 	-0.265072 	0 -0.318321 	-0.267125 	0 -0.318455 	-0.269162 	0 -0.318598 	-0.271157 	0 -0.318747 	-0.273214 	0 -0.318869 	-0.275459 	0 -0.318994 	-0.277705 	0 -0.319121 	-0.279945 	0 -0.319251 	-0.282179 	0 -0.319397 	-0.284435 	0 -0.319492 	-0.286424 	0 -0.319589 	-0.288416 	0 -0.319687 	-0.290404 	0 -0.319788 	-0.292386 	0 -0.319887 	-0.2943 	0 -0.319914 	-0.294781 	0 -0.319941 	-0.295267 	0 -0.319969 	-0.295754 	0 -0.319997 	-0.29624 	0 -0.320026 	-0.296738 	0 -0.320145 	-0.299432 	0 -0.32027 	-0.302109 	0 -0.320398 	-0.304778 	0 -0.320528 	-0.307438 	0 -0.320667 	-0.310205 	0 -0.320771 	-0.313161 	0 -0.320884 	-0.316089 	0 -0.321006 	-0.318967 	0 -0.321131 	-0.321835 	0 -0.321265 	-0.324828 	0 -0.321362 	-0.328004 	0 -0.321464 	-0.331176 	0 -0.321568 	-0.334335 	0 -0.321687 	-0.337417 	0 -0.321816 	-0.34064 	0 -0.321907 	-0.344037 	0 -0.322001 	-0.347429 	0 -0.