# vtk DataFile Version 2.0
track0
ASCII
DATASET POLYDATA
POINTS 12130 float
-0.0205 0.001 1e-05
-0.02049 0.0011 1e-05
-0.0204799 0.00119999 1e-05
-0.0204696 0.00129996 1e-05
-0.0204592 0.00139993 1e-05
-0.0204487 0.0015 1e-05
-0.0204381 0.0016 1e-05
-0.0204273 0.00169998 1e-05
-0.0204163 0.00179995 1e-05
-0.0204052 0.0018999 1e-05
-0.0203939 0.002 1e-05
-0.0203825 0.0021 1e-05
-0.0203709 0.00219998 1e-05
-0.020359 0.00229993 1e-05
-0.020347 0.00239987 1e-05
-0.0203348 0.0025 1e-05
-0.0203249 0.00257956 1e-05
-0.0203149 0.00265911 1e-05
-0.0203047 0.00273863 1e-05
-0.0202945 0.00281814 1e-05
-0.0202854 0.00288718 1e-05
-0.0202824 0.00290975 1e-05
-0.0202794 0.00293231 1e-05
-0.0202764 0.00295487 1e-05
-0.0202734 0.00297743 1e-05
-0.0202703 0.003 1e-05
-0.0202568 0.0031 1e-05
-0.020243 0.00319997 1e-05
-0.020229 0.0032999 1e-05
-0.0202148 0.0033998 1e-05
-0.0202003 0.0035 1e-05
-0.0201856 0.0036 1e-05
-0.0201706 0.00369996 1e-05
-0.0201554 0.00379989 1e-05
-0.0201399 0.00389977 1e-05
-0.0201241 0.004 1e-05
-0.020108 0.0041 1e-05
-0.0200918 0.00419996 1e-05
-0.0200752 0.00429987 1e-05
-0.0200584 0.00439974 1e-05
-0.0200412 0.0045 1e-05
-0.0200374 0.00452173 1e-05
-0.0200336 0.00454346 1e-05
-0.0200298 0.00456518 1e-05
-0.020026 0.00458691 1e-05
-0.0200223 0.00460789 1e-05
-0.0200084 0.00468631 1e-05
-0.0199944 0.00476471 1e-05
-0.0199802 0.00484307 1e-05
-0.0199658 0.0049214 1e-05
-0.0199512 0.005 1e-05
-0.0199324 0.0051 1e-05
-0.0199133 0.00519995 1e-05
-0.0198939 0.00529984 1e-05
-0.0198742 0.00539967 1e-05
-0.0198542 0.0055 1e-05
-0.0198356 0.00559147 1e-05
-0.0198168 0.00568288 1e-05
-0.0197978 0.00577425 1e-05
-0.0197785 0.00586556 1e-05
-0.0197614 0.00594547 1e-05
-0.019759 0.00595638 1e-05
-0.0197566 0.00596728 1e-05
-0.0197543 0.00597819 1e-05
-0.0197519 0.00598909 1e-05
-0.0197495 0.006 1e-05
-0.0197277 0.0061 1e-05
-0.0197056 0.00619993 1e-05
-0.0196832 0.0062998 1e-05
-0.0196605 0.00639961 1e-05
-0.0196374 0.0065 1e-05
-0.019614 0.0066 1e-05
-0.0195903 0.00669993 1e-05
-0.0195663 0.00679979 1e-05
-0.0195421 0.00689957 1e-05
-0.0195173 0.007 1e-05
-0.0195144 0.00701185 1e-05
-0.0195114 0.00702371 1e-05
-0.0195084 0.00703556 1e-05
-0.0195054 0.00704741 1e-05
-0.0195025 0.00705909 1e-05
-0.0194803 0.00714727 1e-05
-0.0194579 0.00723539 1e-05
-0.0194352 0.00732345 1e-05
-0.0194123 0.00741145 1e-05
-0.019389 0.0075 1e-05
-0.0193624 0.0076 1e-05
-0.0193355 0.00769992 1e-05
-0.0193082 0.00779975 1e-05
-0.0192807 0.00789949 1e-05
-0.0192526 0.008 1e-05
-0.0192512 0.00800484 1e-05
-0.0192499 0.00800969 1e-05
-0.0192485 0.00801453 1e-05
-0.0192471 0.00801938 1e-05
-0.0192457 0.00802419 1e-05
-0.0192187 0.00811935 1e-05
-0.0191914 0.00821443 1e-05
-0.0191639 0.00830943 1e-05
-0.019136 0.00840434 1e-05
-0.0191076 0.0085 1e-05
-0.0190843 0.00857768 1e-05
-0.0190608 0.0086553 1e-05
-0.0190371 0.00873286 1e-05
-0.0190132 0.00881036 1e-05
-0.018991 0.00888157 1e-05
-0.0189836 0.00890526 1e-05
-0.0189762 0.00892894 1e-05
-0.0189687 0.00895261 1e-05
-0.0189612 0.00897628 1e-05
-0.0189537 0.009 1e-05
-0.0189219 0.0091 1e-05
-0.0188898 0.0091999 1e-05
-0.0188574 0.00929969 1e-05
-0.0188246 0.00939937 1e-05
-0.0187912 0.0095 1e-05
-0.0187806 0.00953143 1e-05
-0.01877 0.00956285 1e-05
-0.0187594 0.00959427 1e-05
-0.0187488 0.00962566 1e-05
-0.0187384 0.00965609 1e-05
-0.0187149 0.00972487 1e-05
-0.0186912 0.0097936 1e-05
-0.0186674 0.00986227 1e-05
-0.0186434 0.00993089 1e-05
-0.0186191 0.01 1e-05
-0.0185929 0.0100741 1e-05
-0.0185664 0.0101481 1e-05
-0.0185398 0.0102221 1e-05
-0.0185129 0.010296 1e-05
-0.0184878 0.0103648 1e-05
-0.0184778 0.0103918 1e-05
-0.0184678 0.0104188 1e-05
-0.0184578 0.0104459 1e-05
-0.0184478 0.0104729 1e-05
-0.0184377 0.0105 1e-05
-0.0184003 0.0106 1e-05
-0.0183626 0.0106999 1e-05
-0.0183245 0.0107996 1e-05
-0.0182862 0.0108992 1e-05
-0.0182469 0.011 1e-05
-0.0182454 0.0110039 1e-05
-0.0182438 0.0110079 1e-05
-0.0182423 0.0110118 1e-05
-0.0182407 0.0110157 1e-05
-0.0182392 0.0110197 1e-05
-0.0182013 0.0111157 1e-05
-0.0181631 0.0112117 1e-05
-0.0181246 0.0113075 1e-05
-0.0180858 0.0114032 1e-05
-0.0180462 0.0115 1e-05
-0.0180354 0.0115259 1e-05
-0.0180247 0.0115518 1e-05
-0.0180139 0.0115777 1e-05
-0.0180032 0.0116036 1e-05
-0.0179926 0.0116289 1e-05
-0.0179615 0.0117031 1e-05
-0.0179302 0.0117772 1e-05
-0.0178987 0.0118513 1e-05
-0.017867 0.0119253 1e-05
-0.0178348 0.012 1e-05
-0.0178175 0.01204 1e-05
-0.0178 0.0120799 1e-05
-0.0177825 0.0121199 1e-05
-0.017765 0.0121598 1e-05
-0.017748 0.0121983 1e-05
-0.0177213 0.0122587 1e-05
-0.0176944 0.0123189 1e-05
-0.0176674 0.0123792 1e-05
-0.0176403 0.0124393 1e-05
-0.0176128 0.0125 1e-05
-0.0175913 0.0125471 1e-05
-0.0175697 0.0125942 1e-05
-0.0175481 0.0126413 1e-05
-0.0175264 0.0126883 1e-05
-0.0175053 0.0127335 1e-05
-0.0174805 0.0127868 1e-05
-0.0174555 0.0128401 1e-05
-0.0174305 0.0128933 1e-05
-0.0174053 0.0129464 1e-05
-0.0173798 0.013 1e-05
-0.0173568 0.0130482 1e-05
-0.0173337 0.0130963 1e-05
-0.0173105 0.0131444 1e-05
-0.0172872 0.0131924 1e-05
-0.0172647 0.0132387 1e-05
-0.0172391 0.0132909 1e-05
-0.0172134 0.0133432 1e-05
-0.0171877 0.0133953 1e-05
-0.0171618 0.0134474 1e-05
-0.0171356 0.0135 1e-05
-0.0171137 0.0135438 1e-05
-0.0170917 0.0135875 1e-05
-0.0170696 0.0136312 1e-05
-0.0170474 0.0136749 1e-05
-0.0170259 0.0137171 1e-05
-0.016997 0.0137737 1e-05
-0.0169679 0.0138302 1e-05
-0.0169388 0.0138866 1e-05
-0.0169095 0.013943 1e-05
-0.0168797 0.014 1e-05
-0.0168616 0.0140345 1e-05
-0.0168434 0.014069 1e-05
-0.0168252 0.0141035 1e-05
-0.016807 0.014138 1e-05
-0.0167891 0.0141715 1e-05
-0.0167541 0.0142372 1e-05
-0.0167189 0.0143028 1e-05
-0.0166835 0.0143684 1e-05
-0.016648 0.0144338 1e-05
-0.0166118 0.0145 1e-05
-0.0166003 0.014521 1e-05
-0.0165888 0.0145419 1e-05
-0.0165772 0.0145629 1e-05
-0.0165656 0.0145839 1e-05
-0.0165542 0.0146045 1e-05
-0.0165103 0.0146836 1e-05
-0.0164662 0.0147626 1e-05
-0.0164218 0.0148414 1e-05
-0.0163772 0.0149201 1e-05
-0.0163316 0.015 1e-05
-0.0163295 0.0150036 1e-05
-0.0163274 0.0150073 1e-05
-0.0163253 0.0150109 1e-05
-0.0163233 0.0150145 1e-05
-0.0163212 0.0150182 1e-05
-0.0162749 0.0150984 1e-05
-0.0162285 0.0151786 1e-05
-0.0161817 0.0152586 1e-05
-0.0161347 0.0153384 1e-05
-0.01609 0.0154139 1e-05
-0.0160797 0.0154311 1e-05
-0.0160695 0.0154483 1e-05
-0.0160592 0.0154655 1e-05
-0.0160488 0.0154827 1e-05
-0.0160385 0.0155 1e-05
-0.0160029 0.0155591 1e-05
-0.0159672 0.0156182 1e-05
-0.0159314 0.0156771 1e-05
-0.0158955 0.015736 1e-05
-0.0158607 0.0157925 1e-05
-0.0158351 0.015834 1e-05
-0.0158095 0.0158755 1e-05
-0.0157837 0.0159169 1e-05
-0.0157579 0.0159582 1e-05
-0.0157318 0.016 1e-05
-0.0157121 0.0160313 1e-05
-0.0156923 0.0160626 1e-05
-0.0156726 0.0160939 1e-05
-0.0156528 0.0161251 1e-05
-0.0156333 0.0161557 1e-05
-0.0155894 0.0162246 1e-05
-0.0155454 0.0162933 1e-05
-0.0155011 0.0163619 1e-05
-0.0154567 0.0164304 1e-05
-0.0154112 0.0165 1e-05
-0.0154105 0.0165011 1e-05
-0.0154098 0.0165021 1e-05
-0.0154091 0.0165032 1e-05
-0.0154084 0.0165043 1e-05
-0.0154077 0.0165053 1e-05
-0.015363 0.0165734 1e-05
-0.015318 0.0166414 1e-05
-0.0152729 0.0167093 1e-05
-0.0152276 0.016777 1e-05
-0.0151839 0.0168418 1e-05
-0.0151625 0.0168735 1e-05
-0.0151411 0.0169051 1e-05
-0.0151196 0.0169366 1e-05
-0.015098 0.0169682 1e-05
-0.0150763 0.017 1e-05
-0.0150534 0.0170333 1e-05
-0.0150305 0.0170666 1e-05
-0.0150075 0.0170998 1e-05
-0.0149845 0.017133 1e-05
-0.0149619 0.0171656 1e-05
-0.0149179 0.0172288 1e-05
-0.0148737 0.0172919 1e-05
-0.0148293 0.017355 1e-05
-0.0147848 0.0174179 1e-05
-0.0147417 0.0174783 1e-05
-0.0147386 0.0174827 1e-05
-0.0147356 0.017487 1e-05
-0.0147325 0.0174913 1e-05
-0.0147293 0.0174957 1e-05
-0.0147262 0.0175 1e-05
-0.0146857 0.0175566 1e-05
-0.0146449 0.0176131 1e-05
-0.0146041 0.0176695 1e-05
-0.0145631 0.0177259 1e-05
-0.0145233 0.0177803 1e-05
-0.014491 0.0178242 1e-05
-0.0144587 0.0178681 1e-05
-0.0144263 0.0179119 1e-05
-0.0143937 0.0179557 1e-05
-0.0143607 0.018 1e-05
-0.0143499 0.0180144 1e-05
-0.0143391 0.0180289 1e-05
-0.0143283 0.0180433 1e-05
-0.0143174 0.0180577 1e-05
-0.0143067 0.018072 1e-05
-0.0142637 0.0181291 1e-05
-0.0142206 0.018186 1e-05
-0.0141773 0.0182429 1e-05
-0.0141339 0.0182996 1e-05
-0.0140917 0.0183545 1e-05
-0.0140693 0.0183836 1e-05
-0.0140468 0.0184127 1e-05
-0.0140243 0.0184417 1e-05
-0.0140017 0.0184707 1e-05
-0.0139789 0.0185 1e-05
-0.0139588 0.0185257 1e-05
-0.0139387 0.0185513 1e-05
-0.0139186 0.0185769 1e-05
-0.0138985 0.0186025 1e-05
-0.0138786 0.0186278 1e-05
-0.0138363 0.0186813 1e-05
-0.0137939 0.0187347 1e-05
-0.0137513 0.018788 1e-05
-0.0137087 0.0188413 1e-05
-0.0136671 0.0188929 1e-05
-0.0136498 0.0189143 1e-05
-0.0136324 0.0189357 1e-05
-0.0136151 0.0189571 1e-05
-0.0135977 0.0189785 1e-05
-0.0135802 0.019 1e-05
-0.0135556 0.0190301 1e-05
-0.013531 0.0190602 1e-05
-0.0135064 0.0190903 1e-05
-0.0134817 0.0191203 1e-05
-0.0134573 0.0191498 1e-05
-0.0134157 0.0192002 1e-05
-0.013374 0.0192504 1e-05
-0.0133322 0.0193006 1e-05
-0.0132902 0.0193507 1e-05
-0.0132493 0.0193994 1e-05
-0.0132323 0.0194195 1e-05
-0.0132153 0.0194396 1e-05
-0.0131983 0.0194597 1e-05
-0.0131812 0.0194798 1e-05
-0.0131641 0.0195 1e-05
-0.0131398 0.0195285 1e-05
-0.0131155 0.0195569 1e-05
-0.0130912 0.0195853 1e-05
-0.0130669 0.0196137 1e-05
-0.0130429 0.0196416 1e-05
-0.0130019 0.0196891 1e-05
-0.0129609 0.0197366 1e-05
-0.0129197 0.0197839 1e-05
-0.0128785 0.0198312 1e-05
-0.0128381 0.0198773 1e-05
-0.0128165 0.0199018 1e-05
-0.0127949 0.0199263 1e-05
-0.0127733 0.0199508 1e-05
-0.0127516 0.0199753 1e-05
-0.0127297 0.02 1e-05
-0.0127108 0.0200213 1e-05
-0.0126918 0.0200426 1e-05
-0.0126729 0.0200639 1e-05
-0.0126539 0.0200852 1e-05
-0.012635 0.0201062 1e-05
-0.0125947 0.0201511 1e-05
-0.0125544 0.020196 1e-05
-0.0125139 0.0202408 1e-05
-0.0124734 0.0202855 1e-05
-0.0124336 0.0203291 1e-05
-0.0124024 0.0203633 1e-05
-0.0123711 0.0203974 1e-05
-0.0123398 0.0204315 1e-05
-0.0123084 0.0204656 1e-05
-0.0122766 0.0205 1e-05
-0.012268 0.0205092 1e-05
[...]
POINT_DATA 12130
 FIELD attributes 2
p 1 12130 float
-0.0082245 -0.00904787 -0.00986932 -0.0106903 -0.0115113 -0.0123331 -0.0131442 -0.0139548 -0.0147641 -0.0155726 -0.0163819 -0.0171809 -0.0179797 -0.0187784 -0.0195765 -0.0203748 -0.0210067 -0.0216384 -0.02227 -0.0229015 -0.0234498 -0.0236292 -0.0238086 -0.0239879 -0.0241672 -0.0243465 -0.0251354 -0.0259234 -0.0267112 -0.0274989 -0.0282889 -0.029073 -0.0298569 -0.0306395 -0.0314216 -0.0322063 -0.032986 -0.0337654 -0.0345446 -0.0353236 -0.0361049 -0.0362735 -0.0364421 -0.0366107 -0.0367792 -0.036942 -0.0375509 -0.0381595 -0.0387679 -0.0393762 -0.0399867 -0.0407609 -0.0415348 -0.0423074 -0.0430796 -0.0438556 -0.0445614 -0.0452669 -0.0459722 -0.0466772 -0.0472942 -0.0473784 -0.0474627 -0.0475469 -0.0476312 -0.0477154 -0.0484858 -0.0492554 -0.0500247 -0.0507936 -0.0515673 -0.0523369 -0.0531062 -0.0538751 -0.0546436 -0.0554168 -0.055508 -0.0555991 -0.0556903 -0.0557814 -0.0558712 -0.0565495 -0.0572275 -0.0579051 -0.0585824 -0.059264 -0.0600338 -0.0608031 -0.061572 -0.0623404 -0.0631146 -0.0631519 -0.0631893 -0.0632266 -0.0632638 -0.0633009 -0.0640338 -0.0647663 -0.0654983 -0.0662299 -0.0669674 -0.0675669 -0.0681661 -0.0687651 -0.0693636 -0.0699138 -0.0700968 -0.0702797 -0.0704626 -0.0706454 -0.0708286 -0.0716025 -0.0723758 -0.0731479 -0.0739194 -0.0746984 -0.0749424 -0.0751863 -0.0754301 -0.0756739 -0.0759101 -0.0764438 -0.0769772 -0.0775104 -0.0780432 -0.0785799 -0.0791571 -0.0797339 -0.0803104 -0.0808865 -0.0814229 -0.0816337 -0.0818444 -0.082055 -0.0822656 -0.0824769 -0.083259 -0.0840404 -0.0848209 -0.0856008 -0.0863896 -0.0864206 -0.0864516 -0.0864825 -0.0865134 -0.0865443 -0.0872986 -0.0880523 -0.0888052 -0.0895573 -0.0903187 -0.0905234 -0.090728 -0.0909326 -0.0911371 -0.0913371 -0.091923 -0.0925083 -0.0930931 -0.0936774 -0.0942676 -0.0945852 -0.0949027 -0.09522 -0.0955372 -0.0958439 -0.0963225 -0.0968009 -0.0972789 -0.0977565 -0.0982385 -0.098615 -0.0989914 -0.0993675 -0.0997434 -0.100105 -0.10053 -0.100955 -0.10138 -0.101804 -0.102232 -0.102619 -0.103006 -0.103393 -0.103779 -0.104151 -0.104571 -0.10499 -0.105408 -0.105827 -0.106249 -0.106603 -0.106957 -0.107311 -0.107664 -0.108006 -0.108463 -0.108919 -0.109375 -0.10983 -0.11029 -0.110571 -0.110852 -0.111133 -0.111414 -0.111688 -0.112221 -0.112754 -0.113286 -0.113818 -0.114356 -0.114528 -0.1147 -0.114872 -0.115044 -0.115214 -0.11586 -0.116506 -0.11715 -0.117794 -0.118447 -0.118477 -0.118507 -0.118537 -0.118567 -0.118598 -0.119258 -0.119917 -0.120576 -0.121233 -0.121854 -0.121995 -0.122136 -0.122277 -0.122418 -0.12256 -0.123049 -0.123539 -0.124027 -0.124515 -0.124983 -0.125325 -0.125667 -0.126008 -0.126349 -0.126693 -0.126954 -0.127215 -0.127477 -0.127737 -0.127993 -0.128564 -0.129134 -0.129703 -0.130272 -0.130849 -0.130858 -0.130867 -0.130876 -0.130885 -0.130894 -0.131463 -0.13203 -0.132596 -0.133162 -0.133703 -0.133965 -0.134227 -0.134488 -0.13475 -0.135013 -0.135293 -0.135573 -0.135852 -0.136131 -0.136405 -0.136932 -0.137458 -0.137983 -0.138508 -0.139012 -0.139047 -0.139083 -0.139119 -0.139154 -0.139191 -0.139665 -0.140139 -0.140612 -0.141084 -0.14154 -0.141904 -0.142268 -0.142632 -0.142995 -0.143362 -0.143483 -0.143605 -0.143727 -0.143848 -0.143969 -0.144445 -0.14492 -0.145394 -0.145866 -0.146324 -0.146563 -0.146802 -0.147041 -0.14728 -0.147521 -0.147736 -0.147951 -0.148166 -0.14838 -0.148592 -0.149034 -0.149476 -0.149916 -0.150355 -0.150781 -0.150956 -0.15113 -0.151303 -0.151477 -0.151652 -0.151901 -0.152151 -0.1524 -0.152649 -0.152895 -0.153305 -0.153715 -0.154123 -0.154531 -0.154929 -0.155089 -0.15525 -0.15541 -0.155571 -0.155733 -0.155966 -0.156198 -0.15643 -0.156662 -0.15689 -0.157271 -0.15765 -0.158029 -0.158407 -0.158775 -0.158967 -0.159159 -0.15935 -0.159542 -0.159734 -0.159904 -0.160075 -0.160245 -0.160416 -0.160585 -0.160935 -0.161285 -0.161635 -0.161984 -0.162326 -0.162585 -0.162844 -0.163103 -0.163361 -0.163623 -0.163695 -0.163767 -0.163839 -0.163911 -0.163982 -0.164305 -0.164628 -0.16495 -0.16527 -0.165584 -0.165888 -0.166191 -0.166494 -0.166795 -0.167091 -0.167143 -0.167195 -0.167246 -0.167297 -0.167348 -0.167589 -0.167829 -0.168069 -0.168309 -0.168545 -0.16882 -0.169094 -0.169369 -0.169644 -0.169915 -0.170101 -0.170287 -0.170473 -0.170658 -0.170846 -0.170918 -0.170989 -0.17106 -0.171132 -0.171202 -0.171449 -0.171698 -0.171946 -0.172192 -0.172435 -0.172664 -0.172892 -0.173119 -0.173346 -0.17357 -0.173663 -0.173756 -0.173849 -0.173942 -0.174035 -0.174155 -0.174276 -0.174397 -0.174518 -0.174639 -0.174838 -0.175038 -0.175239 -0.175439 -0.175637 -0.175816 -0.175997 -0.176177 -0.176356 -0.176536 -0.17659 -0.176645 -0.1767 -0.176755 -0.176812 -0.176926 -0.17704 -0.177153 -0.177266 -0.177377 -0.177529 -0.177681 -0.177836 -0.177989 -0.17814 -0.178274 -0.178407 -0.178539 -0.17867 -0.178803 -0.178853 -0.178902 -0.178951 -0.179001 -0.17905 -0.179118 -0.179188 -0.179258 -0.179327 -0.179398 -0.179499 -0.179603 -0.179709 -0.179814 -0.179918 -0.179999 -0.180082 -0.180163 -0.180248 -0.180335 -0.180381 -0.180428 -0.180475 -0.180521 -0.180569 -0.180589 -0.180608 -0.180627 -0.180646 -0.180664 -0.180718 -0.180774 -0.18083 -0.180884 -0.180938 -0.180971 -0.181002 -0.181035 -0.181071 -0.181106 -0.181119 -0.181131 -0.181143 -0.181154 -0.181167 -0.181167 -0.181165 -0.181163 -0.181162 -0.181159 -0.181159 -0.181161 -0.181162 -0.181163 -0.181165 -0.181139 -0.18112 -0.181104 -0.181086 -0.181071 -0.181026 -0.180982 -0.180938 -0.180901 -0.180865 -0.180801 -0.180738 -0.180674 -0.18061 -0.180549 -0.180542 -0.180536 -0.18053 -0.180525 -0.180519 -0.180454 -0.180388 -0.180321 -0.180253 -0.180184 -0.180084 -0.179988 -0.179896 -0.179804 -0.179712 -0.179593 -0.179472 -0.17935 -0.179236 -0.179124 -0.178983 -0.178843 -0.178701 -0.17856 -0.178421 -0.178397 -0.178373 -0.178349 -0.178324 -0.178299 -0.178169 -0.178039 -0.177909 -0.177778 -0.177649 -0.177462 -0.177286 -0.177112 -0.176939 -0.176767 -0.176561 -0.176355 -0.17615 -0.175956 -0.175763 -0.175535 -0.175308 -0.175081 -0.174853 -0.174639 -0.174505 -0.174372 -0.174238 -0.174104 -0.17397 -0.173861 -0.17375 -0.17364 -0.173529 -0.173417 -0.173147 -0.172887 -0.172626 -0.172365 -0.172106 -0.171809 -0.171511 -0.171229 -0.170946 -0.170664 -0.170345 -0.170025 -0.169706 -0.169397 -0.169096 -0.168757 -0.168416 -0.168074 -0.167733 -0.167397 -0.1673 -0.167203 -0.167107 -0.16701 -0.166914 -0.166652 -0.166392 -0.166131 -0.165871 -0.165613 -0.165217 -0.16484 -0.164463 -0.164086 -0.16371 -0.163289 -0.162869 -0.162468 -0.16207 -0.161675 -0.161233 -0.160791 -0.160349 -0.159921 -0.159502 -0.159038 -0.158575 -0.158111 -0.157647 -0.157197 -0.157019 -0.156842 -0.156664 -0.156486 -0.156308 -0.156007 -0.155706 -0.155405 -0.155104 -0.154803 -0.154288 -0.153792 -0.153296 -0.1528 -0.152307 -0.151762 -0.151221 -0.150701 -0.150181 -0.149663 -0.149093 -0.148525 -0.147958 -0.147416 -0.146878 -0.146284 -0.14569 -0.145096 -0.144502 -0.143933 -0.143403 -0.142875 -0.142346 -0.141818 -0.141289 -0.141199 -0.141109 -0.141019 -0.140929 -0.140839 -0.140193 -0.139548 -0.138903 -0.138258 -0.137611 -0.136904 -0.136223 -0.135548 -0.134874 -0.1342 -0.133466 -0.132728 -0.132016 -0.131313 -0.130607 -0.129838 -0.129069 -0.1283 -0.127557 -0.126824 -0.126031 -0.125235 -0.12444 -0.123644 -0.122872 -0.122295 -0.121718 -0.121141 -0.120564 -0.119987 -0.119739 -0.119492 -0.119244 -0.118997 -0.11875 -0.117891 -0.117044 -0.116197 -0.115351 -0.114501 -0.113589 -0.112709 -0.111841 -0.110974 -0.110104 -0.10918 -0.108255 -0.107362 -0.106483 -0.105598 -0.104658 -0.103718 -0.102779 -0.101872 -0.100974 -0.100025 -0.0990753 -0.0981264 -0.0971783 -0.0962567 -0.0955492 -0.0948419 -0.0941351 -0.0934289 -0.0927323 -0.0924739 -0.0922162 -0.0919587 -0.0917013 -0.0914442 -0.0904566 -0.089483 -0.0885106 -0.0875392 -0.086559 -0.0855201 -0.0845198 -0.0835345 -0.0825506 -0.0815569 -0.0805055 -0.0794551 -0.0784426 -0.0774465 -0.0764377 -0.0753697 -0.074304 -0.0732401 -0.0722127 -0.0711884 -0.0701056 -0.0690242 -0.0679449 -0.0668678 -0.0658048 -0.0651746 -0.0645452 -0.0639167 -0.0632889 -0.0626748 -0.0621994 -0.0617241 -0.0612492 -0.0607748 -0.0602961 -0.0591483 -0.0580295 -0.0569134 -0.0557999 -0.0546614 -0.0534626 -0.0522897 -0.0511548 -0.0500228 -0.0488625 -0.0476442 -0.0464279 -0.0452287 -0.0440778 -0.042894 -0.0416545 -0.0404179 -0.0391851 -0.0379563 -0.0367496 -0.0357242 -0.0346999 -0.0336783 -0.0326596 -0.0316787 -0.0314302 -0.0311811 -0.0309319 -0.0306829 -0.0304312 -0.0291242 -0.027837 -0.0265543 -0.0252761 -0.0239502 -0.0225748 -0.0212282 -0.0199239 -0.0186244 -0.0172712 -0.0158729 -0.0144797 -0.0130923 -0.0117692 -0.0103898 -0.00896836 -0.00755198 -0.0061417 -0.00473744 -0.00329406 -0.00287857 -0.00246317 -0.00204831 -0.00163398 -0.00122494 -0.000187014 0.000848382 0.0018805 0.00290938 0.00397608 0.00552077 0.00700677 0.00847486 0.00993632 0.0114791 0.0130555 0.0146251 0.0161831 0.0176743 0.019253 0.0208661 0.0224731 0.024072 0.0256629 0.0273406 0.0274919 0.0276439 0.0277958 0.0279479 0.0280995 0.029601 0.0310943 0.0325807 0.0340602 0.035624 0.0373475 0.0390532 0.0406918 0.0423223 0.0440619 0.0458205 0.04757 0.04931 0.0510406 0.0528346 0.0535314 0.054233 0.0549332 0.055632 0.056328 0.0575628 0.0588 0.0600328 0.0612612 0.0625527 0.0646843 0.0667722 0.0688011 0.0708188 0.0729886 0.0750759 0.0771456 0.0791989 0.0812363 0.0834409 0.0836767 0.0839154 0.084154 0.0843925 0.084633 0.0874284 0.0902075 0.0929678 0.0957099 0.0988992 0.0991647 0.0994326 0.0997002 0.0999677 0.100237 0.103444 0.106626 0.10978 0.112908 0.116088 0.116197 0.116305 0.116412 0.11652 0.116628 0.119692 0.122724 0.125728 0.128705 0.131566 0.132442 0.133306 0.134168 0.135027 0.135927 0.137811 0.139665 0.141506 0.143334 0.145105 0.146733 0.148319 0.149888 0.151441 0.153208 0.153594 0.153953 0.154312 0.154669 0.154998 0.15589 0.156742 0.157595 0.158423 0.159181 0.15906 0.158895 0.158721 0.158539 0.158284 0.158075 0.157827 0.157576 0.157321 0.157029 0.155303 0.153537 0.151848 0.150143 0.148411 0.146007 0.143558 0.141096 0.138621 0.1354 0.135228 0.135056 0.134874 0.134689 0.134476 0.130801 0.127109 0.123408 0.119699 0.11599 0.111703 0.107389 0.103113 0.0988669 0.0946254 0.0900017 0.0853577 0.0807077 0.0760519 0.0714535 0.0681411 0.0648164 0.0614895 0.0581606 0.0539246 0.0526042 0.0512746 0.0499447 0.0486147 0.0472763 0.0423434 0.0374125 0.0324805 0.0275472 0.0226176 0.0177258 0.012833 0.00794118 0.00304858 -0.00184185 -0.00657481 -0.0113175 -0.016102 -0.0208872 -0.0256726 -0.0301598 -0.0346513 -0.0392118 -0.0438332 -0.0484553 -0.0525988 -0.0567455 -0.0609203 -0.065324 -0.0697288 -0.0734201 -0.077112 -0.0808051 -0.0848317 -0.0889581 -0.0920698 -0.09518 -0.0982919 -0.101732 -0.105507 -0.107917 -0.110323 -0.112731 -0.115385 -0.118724 -0.120506 -0.122294 -0.124085 -0.125953 -0.128911 -0.130449 -0.132015 -0.133586 -0.135161 -0.13788 -0.139969 -0.142132 -0.144301 -0.146478 -0.149564 -0.153813 -0.158217 -0.162632 -0.167056 -0.171984 -0.181283 -0.190877 -0.200483 -0.210101 -0.219688 -0.238283 -0.257345 -0.276416 -0.295496 -0.313961 -0.346162 -0.378963 -0.411766 -0.444571 -0.476274 -0.523976 -0.572291 -0.620603 -0.668914 -0.716059 -0.777983 -0.840441 -0.902904 -0.965373 -1.02731 -1.10084 -1.17479 -1.24874 -1.32271 -1.3972 -1.47716 -1.55724 -1.63732 -1.71742 -1.79829 -1.85557 -1.91249 -1.96941 -2.02621 -2.07217 -2.09179 -2.11141 -2.13102 -2.15058 -2.1697 -2.22929 -2.2889 -2.34851 -2.40813 -2.46733 -2.51658 -2.56746 -2.61837 -2.66931 -2.72022 -2.75423 -2.78933 -2.82448 -2.85967 -2.89418 -2.90775 -2.92217 -2.93664 -2.95116 -2.96547 -2.96947 -2.97369 -2.97795 -2.98227 -2.9865