/*--------------------------------*- C++ -*----------------------------------*\
  =========                 |
  \\      /  F ield         | OpenFOAM: The Open Source CFD Toolbox
   \\    /   O peration     | Website:  https://openfoam.org
    \\  /    A nd           | Version:  6
     \\/     M anipulation  |
\*---------------------------------------------------------------------------*/
FoamFile
{
    version     2.0;
    format      ascii;
    class       volScalarField;
    location    "2";
    object      epsilon;
}
// * * * * * * * * * * * * * * * * * * * * * * * * * * * * * * * * * * * * * //

dimensions      [0 2 -3 0 0 0 0];

internalField   nonuniform List<scalar> 
10000
(
1191.38
555.045
279.443
125.635
62.6633
36.3051
24.4236
19.2131
16.982
16.2495
16.5293
17.8302
20.6868
26.6123
38.765
63.532
120.655
250.669
498.298
1108.37
932.839
472.35
233.684
108.542
56.3024
33.425
23.3043
18.7728
16.7368
16.0396
16.2804
17.446
19.9456
24.9783
35.3202
56.5904
99.4635
181.158
348.683
867.031
984.243
470.821
227.623
103.814
53.3539
31.8761
22.5635
18.448
16.5875
15.945
16.1604
17.2208
19.4646
23.9304
33.1396
53.6191
100.076
202.978
403.626
919.534
974.17
400.005
182.351
83.4178
44.3333
27.739
21.0184
18.0009
16.4349
15.8681
16.0846
17.0817
19.131
23.0776
30.5412
43.1302
77.3862
170.159
385.209
904.021
988.085
443.779
214.604
98.1712
50.5786
30.3851
21.8134
18.0557
16.3991
15.839
16.0475
16.9193
18.5607
22.1447
29.6974
45.8575
81.4369
162.232
337.919
904.29
1030.5
386.588
171.837
77.3841
41.5975
26.4905
20.1013
17.6292
16.2891
15.8105
16.0177
17.0825
19.3215
23.6881
32.2286
49.1158
87.3904
174.97
358.663
903.456
959.212
421.46
200.797
93.1463
49.167
29.9236
21.5414
17.8523
16.2407
15.757
16.1761
17.4678
20.1235
25.4397
36.1175
54.9608
98.3006
193.602
382.408
903.016
968.99
479.508
228.831
106.059
55.4748
32.8507
22.9078
18.5177
16.562
15.8867
16.0259
17.1414
19.5827
24.8532
37.5127
62.0388
113.382
222.265
424.108
902.718
972.944
469.42
193.844
100.613
54.4107
32.723
22.9176
18.5076
16.409
15.7797
16.0902
17.519
20.271
25.7457
37.2937
61.2582
112.259
220.612
420.016
903.002
988.401
436.298
213.646
98.6372
51.0692
31.6913
22.7439
18.4953
16.5875
15.9186
16.1218
17.0944
19.523
25.2421
36.2912
59.0935
107.543
212.359
412.593
902.72
1035.01
501.74
256.65
120.238
60.5736
34.6455
23.4618
18.3691
16.5307
15.9124
16.0769
17.3416
19.8405
24.8229
34.9309
55.9993
102.007
202.86
397.296
903.136
979.258
496.578
252.678
119.407
60.9988
34.9299
23.6403
18.7103
16.4373
15.7953
16.058
17.2013
19.2787
23.3687
31.1755
46.8509
82.2408
165.115
346.371
902.761
1028.53
490.994
250.061
117.763
60.0431
34.6338
23.5907
18.7543
16.5217
15.9432
16.2831
17.5906
20.3474
25.8324
36.3251
56.1305
100.488
197.015
385.89
902.469
958.893
475.012
239.99
113.854
58.99
34.25
23.4258
18.728
16.6435
15.871
16.1187
17.3211
20.0544
26.3404
38.494
63.3369
115.319
224.892
426.474
902.218
969.237
462.56
234.261
110.834
57.4677
33.6365
23.1936
18.6697
16.6706
16.0227
16.3528
17.6937
20.5521
26.3587
38.296
62.9499
114.919
224.426
423.792
902.497
972.107
422.161
203.907
95.8841
53.9719
32.9814
22.9684
18.6317
16.6585
16.0202
16.3421
17.6534
20.4374
26.0559
37.6436
61.4871
111.337
218.096
418.846
902.178
985.406
498.89
254.701
119.701
60.5881
34.4394
22.6798
18.5641
16.6422
16.0058
16.2994
17.5562
20.2353
25.6299
36.6994
59.3855
107.257
211.138
407.178
902.536
1028.51
502.279
258.825
121.747
61.2555
34.9168
23.6104
18.7777
16.6505
15.9779
16.2507
17.4361
19.9833
25.1313
35.667
56.2556
90.5334
178.837
365.565
902.132
959.433
494.822
254.59
120.64
61.2986
34.9754
23.6734
18.8071
16.6784
15.9648
16.1655
17.021
19.138
23.5734
33.4587
57.8827
105.36
208.792
408.422
902.004
972.865
494.192
256.195
121.086
61.1435
34.9334
23.6823
18.7966
16.6424
15.857
16.1983
17.4114
19.9362
24.9413
35.1217
56.4104
101.544
201.759
396.228
902.403
984.914
499.074
254.718
120.173
61.0436
34.8779
23.6288
18.7298
16.4299
15.7815
16.1449
17.3786
19.8707
24.4656
32.3037
49.0219
82.0514
163.92
345.026
902.06
1028.09
494.438
252.769
118.844
60.1874
34.5895
23.5628
18.7365
16.4752
15.8119
15.9388
17.0562
19.8829
25.2347
36.2364
58.7537
98.9541
193.732
382.06
901.839
959.482
480.19
243.896
115.262
59.1228
34.198
23.4078
18.7135
16.6003
15.7692
15.9155
16.8998
19.083
23.7479
34.3242
60.5415
111.541
219.185
419.442
901.726
973.09
470.284
239.123
112.094
57.1615
33.3623
23.0844
18.5861
16.5739
15.8491
16.0469
17.1551
19.6435
24.8553
35.9664
59.4572
109.628
216.693
413.382
902.207
985.116
462.405
228.67
105.285
53.842
31.7921
22.3369
18.24
16.406
15.7146
15.7664
16.4912
18.4456
23.2181
33.7698
55.7554
103.223
207.565
404.33
901.997
1027.67
446.456
211.478
82.2562
41.6151
26.1174
19.7406
17.0667
16.0024
15.5782
15.6557
16.3766
17.9347
21.1346
28.2775
45.5912
94.3773
194.235
389.197
901.941
957.927
356.734
161.07
81.7811
45.7528
28.8727
21.1568
17.709
16.1476
15.5813
15.7462
16.5469
18.2391
21.6354
28.6608
43.2413
75.0205
152.877
331.478
901.844
966.429
392.729
186.748
96.2312
52.2158
31.9004
22.5022
18.3526
16.4823
15.7688
15.9242
16.7954
18.6473
22.3852
30.0957
46.3427
82.9246
167.444
348.711
901.715
965.148
422.738
205.67
95.2477
49.9512
32.0283
22.5863
18.4598
16.5669
15.9121
16.1467
17.2033
19.3202
23.636
32.1256
48.938
86.7979
173.361
356.236
901.52
965.061
479.656
242.896
114.628
58.6997
33.8293
22.4888
18.4109
16.5676
15.8983
16.0876
17.4278
20.0882
25.3915
36.0224
54.928
98.3092
193.754
382.724
901.259
965.415
474.602
242.378
114.745
58.9197
34.1979
23.3092
18.3199
16.3754
15.8305
16.0123
17.1229
19.5609
24.8238
37.4454
61.9214
113.216
222.125
424.186
901.083
965.178
469.073
234.83
111.151
57.8558
33.8853
23.3184
18.6758
16.621
15.8566
16.1246
17.4697
20.2293
25.7111
37.2258
61.1495
112.115
220.485
420.089
901.455
965.643
451.736
225.771
106.5
55.5713
33.0315
23.0138
18.6043
16.6377
15.9576
16.2008
17.3303
19.5793
25.2238
36.2319
59.0309
107.499
212.351
412.739
901.259
965.322
400.675
188.012
87.8583
49.883
31.702
22.5653
18.4643
16.5914
15.9264
16.0606
17.1277
19.7867
24.775
34.8569
56.0215
102.126
203.011
397.493
901.764
965.328
455.899
224.033
104.787
54.6823
32.3127
21.8581
17.859
16.2422
15.7944
16.2243
17.2645
19.3507
23.3431
30.9913
47.0969
82.8152
165.847
346.921
901.494
965.853
438.101
214.892
100.116
52.2449
31.5145
22.3208
18.2701
16.4994
15.9666
16.3541
17.7704
20.663
26.2249
36.0071
56.8029
101.936
199.13
387.91
901.314
965.583
375.35
170.779
78.4991
42.5838
27.6902
20.6557
17.5099
16.1393
15.7727
16.2391
17.8149
20.8483
26.8619
39.2093
64.7397
117.977
229.001
430.713
901.178
965.417
426.883
209.728
98.7911
51.8525
32.5601
22.584
18.4102
16.5689
16.0122
16.4089
17.8362
20.8242
26.8367
39.2558
64.9319
118.811
230.715
430.621
901.566
965.343
480.937
244.116
115.449
59.1441
34.001
22.539
18.434
16.6179
16.0334
16.3959
17.7739
20.6968
26.6011
38.8365
64.11
116.813
227.474
429.941
901.347
965.821
476.344
243.956
115.66
59.332
34.339
23.348
18.3405
16.4207
15.9421
16.2039
17.6526
20.5165
26.2462
38.1019
62.7088
114.834
224.737
424.485
901.808
965.698
471.896
237.435
112.645
58.5334
34.1058
23.372
18.6947
16.6635
16.008
16.306
17.5867
20.2993
25.7814
37.1675
60.7865
110.778
218.085
419.439
901.654
966.248
456.586
230.035
108.97
56.7695
33.4391
23.1207
18.6277
16.6454
15.9862
16.2647
17.4741
20.0368
25.1878
35.857
58.008
106.059
210.705
407.827
902.157
965.991
411.196
196.756
92.8299
52.4156
32.5864
22.8231
18.5376
16.6012
15.9435
16.1992
17.3431
19.7452
24.5046
33.8232
49.3783
87.4352
176.899
366.21
901.859
966.023
477.059
241.103
114.272
58.9263
33.9508
22.5018
18.4167
16.5675
15.8849
15.9737
16.912
18.9565
23.3293
34.2619
55.4364
100.991
203.763
407.975
901.796
966.608
470.737
240.016
114.288
59.001
34.2609
23.3322
18.3295
16.3741
15.7804
16.1291
17.2939
19.5909
23.4374
31.3815
48.7444
87.165
175.557
365.215
902.346
966.689
461.843
230.849
110.454
58.0069
34.0258
23.4033
18.7215
16.6568
15.9261
16.0363
17.1397
19.7447
24.5643
34.3643
54.7945
99.8751
199.804
394.123
902.923
967.75
439.084
219.584
105.659
55.9985
33.3747
23.2316
18.6958
16.671
15.9705
16.1419
17.3537
19.4143
23.4221
31.5033
47.002
82.4691
165.719
347.459
902.786
968.975
383.725
195.629
98.6645
53.8624
32.7053
22.9828
18.5945
16.6349
15.9774
16.2561
17.4816
20.1251
25.5131
36.4841
55.399
99.2527
195.616
385.109
902.735
973.446
387.346
178.172
94.706
52.3881
32.2513
22.7907
18.5107
16.591
15.9185
16.1033
17.0065
19.3837
24.6918
37.2734
61.7002
112.963
222.071
424.477
902.735
986.928
420.94
200.583
91.3025
48.1041
31.4426
22.5446
18.4261
16.5611
15.8771
15.9811
17.0849
19.7897
25.488
36.7094
60.4645
111.194
219.576
419.549
903.282
1029.98
468.214
227.813
105.486
54.636
32.4601
22.6686
18.0637
16.2596
15.6921
15.9087
16.8689
18.9685
23.6045
35.1631
57.769
105.706
210.261
411.039
903.257
960.235
436.335
213.618
99.3398
51.8666
31.3754
22.3223
18.2697
16.4662
15.8602
16.0958
17.149
19.3842
23.9241
33.6212
54.098
99.0809
199.224
393.923
903.945
968.958
372.907
168.622
77.1444
41.889
27.3955
20.5232
17.4451
16.077
15.6364
15.8763
16.8007
18.5396
21.8328
28.9098
43.7255
76.7121
157.951
347.523
903.872
967.913
419.198
203.452
95.3226
50.2636
31.7101
22.3414
18.2935
16.483
15.8726
16.1219
17.2265
19.5014
23.5027
32.301
50.2061
86.8127
172.935
354.999
903.895
968.023
466.23
232.134
108.906
56.2415
32.8524
22.0587
17.9231
16.2231
15.6701
15.8885
16.953
19.5919
24.5603
34.8916
55.9016
93.8019
186.106
374.957
903.835
968.495
453.193
225.809
105.588
54.5458
32.3215
22.6222
18.3783
16.4977
15.8419
15.9989
16.8164
18.7586
22.9211
32.4466
56.4378
104.165
207.963
408.112
903.889
968.094
405.023
188.873
86.7715
45.9755
28.4649
20.8651
17.5878
16.1612
15.665
15.9057
17.0257
19.2533
23.7553
33.293
53.8192
98.9799
199.112
393.647
904.497
967.94
464.827
226.203
104.642
54.2177
32.2763
22.5675
18.3968
16.5432
15.8824
16.0105
16.727
18.3678
21.7839
28.8496
43.581
76.8978
158.148
346.9
904.352
968.351
416.996
197.911
92.5034
49.0831
31.7754
22.5332
18.4673
16.5857
15.9336
16.134
17.0556
19.2053
23.5251
32.2744
49.6921
87.6324
174.375
356.214
904.29
968.749
473.174
241.256
113.727
58.0651
33.5905
22.3487
18.0924
16.4682
15.9212
16.2053
17.3783
19.8844
24.9263
35.2047
55.1241
96.3848
190.248
378.855
904.127
968.552
471.344
236.882
112.043
57.9992
33.8183
23.1872
18.5673
16.4312
15.7742
15.9935
17.0323
19.272
23.935
34.3388
59.8368
109.86
216.192
416.541
904.052
969.047
455.008
228.81
108.038
56.053
33.1403
22.9924
18.5729
16.6158
15.968
16.2449
17.4612
20.056
25.3188
36.2628
59.0608
107.291
211.401
407.456
904.494
968.725
405.8
192.848
90.5856
50.8094
32.0308
22.6098
18.465
16.5892
15.9592
16.2193
17.3957
19.8853
24.9416
35.3811
55.9705
90.5512
179.031
365.686
904.18
968.741
466.261
233.597
110.314
56.9981
33.167
22.1606
17.9647
16.2598
15.7516
16.1177
17.144
19.0086
23.2563
32.9857
57.4316
105.554
209.394
408.948
904.131
969.292
453.589
228.283
108.16
55.9496
32.9916
22.9267
18.5208
16.5816
15.9396
16.2056
17.3302
19.6683
24.3798
34.2801
55.5322
101.744
202.561
396.806
904.596
969.072
434.98
213.784
101.331
53.1229
31.809
22.4628
18.3459
16.5212
15.9162
16.1241
17.1525
19.1336
22.9402
30.5005
46.6106
82.284
165.204
346.127
904.287
968.955
364.924
193.187
82.5688
43.7121
27.4699
20.4668
17.4114
16.0868
15.7554
16.2905
17.6936
20.4565
25.5375
35.1358
55.9991
100.961
197.953
386.662
904.059
968.715
384.466
174.555
91.091
49.8267
30.5259
21.9244
18.1106
16.4245
15.9234
16.3315
17.7124
20.6072
26.4246
38.4842
63.586
116.307
226.909
428.712
903.865
968.404
411.189
194.068
87.8062
45.9309
28.2771
20.7709
17.5352
16.1182
15.7093
16.1498
17.5939
20.4803
26.261
38.2717
63.2647
116.244
227.559
427.91
904.183
968.206
454.591
218.047
100.169
52.0693
31.0888
22.0654
18.1545
16.4164
15.8513
16.175
17.4776
20.2461
25.8154
37.4813
61.7104
112.87
222.521
426.047
903.867
968.705
395.838
181.484
83.6186
44.6353
27.833
20.5964
17.4464
16.044
15.5871
15.8348
16.9283
19.527
25.1389
36.2738
59.3732
109.008
217.108
418.825
904.205
969.174
432.859
210.766
97.5081
50.742
30.6726
21.9115
18.0576
16.3466
15.7734
15.9593
16.9809
19.2411
24.515
34.9068
56.4362
102.545
206.103
410.474
903.912
968.91
375.568
171.186
78.7456
42.6951
27.6566
20.608
17.4574
16.0753
15.6758
16.0889
17.2571
19.4363
23.084
31.0257
48.1388
85.7296
173.241
362.759
904.428
968.734
425.158
208.679
98.256
51.5822
32.3309
22.4566
18.3228
16.477
15.8601
16.0668
17.3223
19.7462
24.4421
34.1725
54.445
98.3828
197.198
391.2
904.959
968.69
478.335
242.833
115.02
58.9779
33.869
22.4504
18.3601
16.5366
15.9122
16.1735
17.3059
19.5952
23.6063
31.3775
47.4456
80.681
162.394
343.481
904.801
969.192
473.445
242.794
115.48
59.325
34.2792
23.2866
18.2884
16.3361
15.7399
16.0907
17.2722
19.7277
24.687
35.0045
55.9053
94.7826
187.698
375.921
904.766
969.165
468.159
236.201
112.828
58.7688
34.18
23.3914
18.6831
16.6164
15.8829
15.9694
16.9039
18.9778
23.3232
33.0876
57.1572
104.616
208.14
407.787
904.827
969.845
451.658
228.458
109.439
57.1044
33.5682
23.2031
18.6419
16.6264
15.9463
16.1855
17.3267
19.7124
24.5028
34.4706
55.2587
100.396
200.658
395.18
905.449
969.776
434.067
215.273
103.814
54.8095
32.6076
22.7671
18.4445
16.5426
15.9171
16.1888
17.3236
19.4725
23.3724
31.3975
46.6981
80.8642
162.974
344.059
905.309
969.793
365.858
196.506
95.6412
47.3922
28.7029
20.8837
17.5876
16.1771
15.6879
16.019
17.3619
19.9857
25.2241
35.829
55.2485
96.8841
191.203
379.381
905.269
969.737
383.245
175.69
93.5396
51.7656
31.7573
22.4201
18.3021
16.4897
15.8878
16.1301
17.1009
19.4413
24.5844
36.8622
60.381
109.114
214.658
414.348
905.282
969.588
410.106
197.786
91.5918
48.8685
31.6543
22.4505
18.3737
16.534
15.9245
16.2184
17.4371
20.0823
25.4688
36.6082
59.3065
106.818
210.517
406.108
905.796
969.555
455.343
226.537
107.437
56.4094
33.0834
22.1221
17.9227
16.2237
15.7021
16.0051
17.3276
19.9359
25.155
35.7602
55.9998
91.5001
180.516
366.64
905.506
969.982
442.217
220.695
104.847
55.3497
32.9465
22.8353
18.4505
16.5365
15.8913
16.0963
17.0043
19.1838
23.8148
34.1533
59.2501
107.526
212.045
410.923
905.408
969.563
393.889
186.12
88.295
50.5474
32.0029
22.5615
18.4064
16.5394
15.9125
16.1814
17.3615
19.9389
25.1952
36.0906
58.5694
105.435
208.204
403.138
905.718
969.355
446.446
221.877
106.247
56.3479
33.0794
22.1139
17.9122
16.2026
15.6601
15.9326
17.2271
19.7772
24.8838
35.2963
55.2726
90.1005
178.249
363.479
905.153
969.513
434.177
216.653
104.225
55.4449
32.9806
22.8998
18.4696
16.5155
15.833
15.8914
16.8078
18.9466
23.4109
33.4063
57.7762
105.134
208.248
405.687
904.683
968.658
416.625
203.494
98.6173
53.3301
32.158
22.6059
18.3731
16.4775
15.7293
15.9266
17.048
19.5954
24.6091
34.972
56.3814
102.506
203.836
397.605
904.479
967.47
353.266
185.469
91.8217
47.7174
28.951
21.0457
17.6398
16.1495
15.6654
15.861
16.8706
19.3796
24.1719
33.9334
53.0248
87.0276
173.766
357.418
903.189
965.538
363.977
164.344
87.7751
49.7985
31.0186
22.2723
18.3104
16.5342
15.8755
15.9328
16.7341
18.5675
22.5146
31.183
50.7546
99.7267
201.012
396.098
901.692
962.265
379.483
178.78
83.5588
45.8849
30.114
22.1699
18.3332
16.56
15.8223
16.0548
17.0137
19.1041
23.5917
33.1247
53.3088
97.0507
195.507
387.582
899.931
956.879
409.492
198.23
95.2758
51.8963
31.5551
22.4037
18.318
16.3393
15.7157
15.7991
16.5823
18.6547
22.8087
31.4435
49.7046
89.2999
182.278
371.97
895.822
947.344
393.708
188.947
90.4171
49.494
30.5459
21.9827
18.1538
16.321
15.7513
15.8195
16.4652
18.0693
20.5871
26.3986
39.3463
68.4946
142.657
316.919
888.203
927.941
370.32
172.726
82.0769
45.4445
28.2757
20.0498
17.1778
16.124
15.7948
15.9125
16.4868
17.8718
21.1514
27.1384
40.9886
72.011
149.408
324.695
872.797
891.497
301.505
129.491
60.532
34.6828
23.5852
19.1094
17.2281
16.3932
16.093
16.1806
16.6763
17.8071
20.2968
26.0727
38.9601
68.1075
143.533
328.363
842.977
827.131
289.525
129.181
61.7516
35.3862
24.3088
19.8186
17.8939
17.0136
16.6743
16.7314
17.1763
18.2037
20.4088
25.4593
37.076
64.1566
135.33
302.329
789.533
726.982
259.074
114.762
55.5132
32.7742
23.8927
20.3504
18.7
17.868
17.5182
17.5444
17.9468
18.8436
20.7155
25.2434
34.5046
58.2006
118.855
272.264
703.813
601.834
239.359
101.969
49.1294
30.3904
24.0218
20.9077
19.2851
18.425
18.0533
18.0697
18.4608
19.2952
20.7787
23.46
30.4102
48.9823
99.2937
228.57
591.177
502.058
227.654
83.8221
38.6705
23.7088
18.6155
16.9866
16.2938
15.9256
15.7606
15.7609
15.946
16.3488
17.1216
18.9178
24.1546
39.2576
84.655
226.896
498.72
473.803
34.0887
9.33049
12.4586
14.2299
14.9112
15.0552
15.0158
14.9544
14.9226
14.9296
14.9779
15.0497
15.0918
14.9362
14.235
12.4114
9.12259
34.1637
472.699
2147.64
966.961
575.47
267.236
106.914
47.4079
26.1506
18.752
16.3492
15.8199
16.2955
18.0037
22.2183
32.1791
55.7391
113.485
256.571
523.221
886.459
2038.17
1021.02
644.795
407.332
194.58
86.4236
41.6385
24.384
18.1197
16.0363
15.5652
15.9816
17.4871
21.1729
29.6969
48.9627
91.9277
186.133
362.65
581.744
973.056
1399.43
641.058
409.766
192.533
83.7222
40.0333
23.7192
17.8767
15.9049
15.4496
15.8307
17.2391
20.6812
28.5999
46.4779
87.0718
179.465
357.102
577.888
1300.97
1412.41
724.124
423.021
154.838
79.1022
39.2919
23.5468
17.7812
15.8158
15.3488
15.6926
17.0182
20.3069
27.9044
44.9284
82.4432
161.239
274.421
515.788
1198.67
1627.03
733.845
432.154
202.977
87.7314
40.438
23.6923
17.763
15.7784
15.3038
15.6019
16.8283
19.9341
27.249
43.9469
81.9323
169.435
342.492
585.227
1222.69
1154.33
635.501
393.39
192.22
85.4019
34.939
20.9013
17.2707
15.6827
15.2484
15.4991
16.6004
19.459
26.3007
41.9237
77.0172
161.964
336.053
573.77
1216.3
1266.11
639.189
397.465
196.169
87.0141
41.1737
23.8752
17.7885
15.7696
15.2263
15.3976
16.3513
18.925
25.2779
39.3954
62.8263
107.139
241.43
487.924
1216.97
1242.82
623.587
382.678
182.982
80.5741
38.9452
23.201
17.5689
15.6763
15.0976
15.224
15.7033
17.4344
22.8833
41.1629
75.893
144.534
301.008
541.563
1216.32
1255.34
606.631
359.225
168.305
73.687
36.0824
22.1545
17.2129
15.5836
15.1861
15.3592
16.328
18.7872
24.7327
38.7785
75.6933
185.287
367.925
607.449
1216.23
1271.06
526.862
263.705
118.141
52.4469
27.5952
19.0223
16.0838
15.1912
15.0555
15.4937
16.8078
20.1728
28.7183
48.9714
94.5515
194.636
377.549
611.051
1216.64
1314.93
617.973
345.514
178.236
75.6813
36.5694
22.4144
17.2198
15.5706
15.1765
15.3654
16.0615
19.3301
24.993
47.2507
92.2531
188.942
368.323
607.929
1216.32
1424.82
722.421
423.598
193.522
67.6962
31.596
21.608
17.0369
15.5559
15.1717
15.3564
16.1228
19.3159
26.5558
44.6835
88.1936
187.39
368.802
602.563
1216.96
1623.82
727.926
419.202
192.355
80.951
38.5222
22.8855
16.9082
15.3749
15.0462
15.2995
16.118
18.4343
23.934
37.9103
74.6029
166.991
349.81
589.366
1216.42
1152.74
526.774
287.477
165.367
73.7216
37.4118
22.8222
17.4885
15.6714
15.1633
15.1591
15.811
16.9702
20.2102
27.5523
45.3532
112.224
320.752
568.334
1216.37
1262.53
640.117
387.297
184.44
67.9756
36.8823
22.8831
17.5646
15.7068
15.2068
15.2875
15.8162
18.2771
23.8267
36.6157
58.1662
117.217
240.968
484.717
1216.07
1237.73
639.777
397.401
193.538
84.6272
39.4873
23.3547
17.6234
15.6918
15.2131
15.3196
15.7837
17.2717
21.7404
37.4313
71.1322
150.031
290.699
533.77
1215.83
1243.11
634.77
387.004
187.205
83.1568
34.2744
20.6179
16.8264
15.5121
15.2018
15.3943
16.2144
18.273
22.8807
30.8857
57.269
132.829
341.676
592.249
1215.82
1242.42
622.926
382.618
185.446
82.613
39.6423
23.3709
17.5895
15.5498
15.1843
15.274
15.9116
17.6686
23.628
37.1654
72.3975
161.833
344.05
588.356
1216.3
1242.09
589.059
349.532
165.55
74.9813
37.437
22.8435
17.5135
15.719
15.2964
15.5538
16.5297
18.4523
21.5116
29.472
50.4458
112.331
278.684
551.715
1215.69
1241.87
502.711
254.361
146.621
70.2728
36.1752
22.5249
17.4434
15.7153
15.3028
15.5708
16.6684
19.3974
23.7686
35.5251
60.7522
112.903
250.622
490.394
1215.5
1241.53
565.024
314.555
153.072
70.3374
36.3215
22.5578
17.4563
15.7182
15.2986
15.5136
16.2762
19.8702
27.3557
44.8231
84.1744
146.435
302.098
542.425
1215.08
1241.46
636.421
385.043
182.03
67.463
36.0107
22.6417
17.4806
15.7173
15.3103
15.5656
16.3169
18.9542
25.2022
41.6585
92.2365
188.746
371.152
609.874
1214.92
1241.92
635.004
391.789
189.923
83.2684
37.3668
22.6988
17.4875
15.6977
15.32
15.6742
16.8039
21.0527
29.9042
49.8402
95.01
194.584
380.691
614.087
1215.24
1241.57
625.104
376.96
180.94
81.5438
39.3887
21.5135
16.8438
15.5327
15.2817
15.6861
16.8233
21.0004
29.7463
49.3729
93.1044
188.818
371.733
612.333
1214.76
1242.19
607.329
366.417
175.461
78.2222
38.3461
22.9299
17.4176
15.4779
15.153
15.6858
17.1491
20.7503
29.1165
48.3227
91.9383
189.416
373.071
608.129
1215.27
1241.53
553.266
316.103
151.292
68.8319
35.1821
21.9749
17.1861
15.5868
15.2045
15.4065
16.9344
20.276
28.091
46.2397
87.7162
180.231
359.709
601.531
1214.85
1241.34
499.493
249.015
132.57
62.3132
32.968
21.1518
16.9346
15.5225
15.1897
15.4002
16.7256
19.7344
26.8709
43.7578
83.548
175.462
354.633
591.121
1215.4
1240.88
549.115
289.776
117.329
50.3947
30.2967
20.4249
16.7816
15.483
15.1756
15.4501
16.5117
19.1458
25.4197
40.2685
75.4523
156.078
296.838
526.371
1214.81
1240.7
609.672
343.84
150.966
66.0548
33.9921
20.3303
16.4276
15.277
15.0283
15.3372
16.2771
18.5729
23.2946
32.3618
59.6667
135.662
344.66
593.652
1215.01
1241.13
551.01
284.377
124.596
63.3313
34.9148
22.0936
17.2596
15.602
15.1395
15.1552
15.7675
17.8757
25.0481
40.3287
77.6405
168.847
350.071
592.131
1215.54
1241.32
632.409
383.966
177.981
66.0413
35.9817
22.395
17.369
15.6522
15.1885
15.3173
16.0928
18.3284
23.729
35.5203
62.6583
133.77
300.3
562.819
1215.07
1240.89
635.454
378.176
175.411
77.2363
37.8327
22.5693
17.3941
15.6587
15.184
15.2655
15.6657
17.1605
22.781
32.0139
57.358
117.639
242.119
483.058
1215.04
1241.41
626.803
373.978
172.977
75.8089
37.201
20.7842
16.5119
15.4986
15.1706
15.3319
15.9054
17.6897
22.5372
39.5196
76.592
161.105
290.248
529.603
1214.84
1241.03
614.836
351.581
158.645
70.9247
36.5102
22.3834
17.3644
15.6543
15.2046
15.3932
16.2887
18.5627
23.4059
33.7838
65.3838
166.48
340.675
583.669
1214.94
1241.89
541.699
280.773
126.41
61.1344
35.7262
22.2684
17.4424
15.6645
15.1838
15.2215
15.9109
18.0987
25.4286
41.0902
78.2459
163.439
334.184
571.752
1215.52
1242.37
616.759
377.567
182.798
80.5328
38.7854
21.4112
17.0982
15.5583
15.1855
15.4053
16.3217
18.658
24.4799
38.2908
69.5708
122.929
239.693
483.399
1215.05
1242.1
606.494
365.342
170.953
74.3138
36.6554
22.3794
17.263
15.4114
15.1234
15.3503
16.1298
17.4913
21.3912
32.0021
72.3495
149.541
289.154
529.542
1215.08
1242.26
579.314
335.041
150.998
64.2742
32.9484
21.2669
16.9706
15.4789
15.0309
15.2315
16.3671
18.9415
24.8033
34.6438
64.5398
165.09
341.803
584.914
1215.17
1242.24
475.423
223.795
86.2606
48.731
29.0786
20.2282
16.6814
15.4061
15.059
15.2283
15.9195
18.1327
25.5784
40.752
75.1818
161.006
335.456
573.434
1215.79
1242.22
499.833
253.51
106.521
45.4608
28.2853
19.9659
16.5703
15.2499
15.124
15.4139
16.3324
18.7377
24.8805
38.4709
60.7887
104.997
240.15
486.443
1215.32
1242.14
513.466
265.585
121.718
54.8434
28.6103
19.4001
16.2315
15.2686
15.0821
15.3896
15.9216
17.4029
22.5511
40.0661
73.9084
142.051
298.845
539.665
1215.32
1242.05
554.307
306.668
160.844
69.986
34.8709
21.9284
17.1089
15.5618
15.2244
15.5397
16.6124
18.7131
24.2427
37.0944
72.0558
179.62
362.944
603.851
1215.37
1242.19
620.046
369.648
171.679
62.07
30.1051
21.1061
16.9132
15.5326
15.2031
15.498
16.7445
20.0843
28.2109
46.365
88.1729
184.882
367.98
603.7
1216.01
1242.77
611.309
367.121
171.316
74.4173
36.3432
22.1323
16.6883
15.325
15.0572
15.2054
15.8899
18.5301
27.5285
44.8391
83.5782
173.052
350.389
593.318
1215.86
1242.31
541.579
293.072
148.891
67.649
34.3966
21.566
17.034
15.5572
15.2065
15.3593
16.2586
18.8925
26.9891
42.7313
77.7148
163.739
338.426
576.228
1216.63
1242.55
614.315
357.426
131.524
54.6865
29.4261
20.4321
16.819
15.5273
15.2351
15.5249
16.6285
19.6344
26.6866
39.8692
60.7719
104.498
242.088
488.481
1216.16
1243.05
606.02
359.359
163.701
71.4869
34.7562
20.2387
16.3348
15.2751
15.1017
15.4354
15.9935
18.4933
27.1137
44.3186
80.9789
147.778
304.344
543.853
1216.19
1242.54
531.895
271.197
124.305
62.8545
32.5709
21.0635
16.9012
15.5339
15.253
15.5818
16.4467
19.1198
25.2241
41.6436
92.121
189.164
372.285
610.985
1216.22
1242.76
596.922
333.982
147.467
64.1218
28.5031
18.8846
16.0177
15.1991
15.1546
15.6392
17.0291
20.9731
29.7481
49.5542
94.5582
194.296
380.969
614.596
1216.81
1243.5
528.48
266.028
114.761
51.8771
30.8407
20.5437
16.7377
15.4466
15.1969
15.543
16.5937
20.725
29.4283
48.7632
91.887
187.186
370.327
611.585
1216.58
1243.99
587.204
342.922
159.109
69.5065
34.0496
19.6177
15.9926
15.1455
15.011
15.4758
16.7906
20.2897
28.6617
47.4028
89.7233
185.915
369.121
605.239
1217.33
1243.63
506.312
260.209
110.094
49.4124
26.8453
19.0703
16.2789
15.2826
15.0398
15.2275
15.9148
18.8555
27.5215
45.1294
84.0878
173.519
351.145
594.393
1217.14
1243.71
556.558
308.36
154.173
69.4179
34.9507
21.9012
17.2197
15.562
15.1466
15.3219
16.0671
18.5418
26.6518
43.0351
78.3894
164.242
339.22
577.349
1217.89
1243.86
621.766
373.811
176.819
65.2024
31.291
20.3042
17.0142
15.5117
15.1105
15.207
16.3106
19.077
25.8968
40.4582
62.3868
105.56
242.925
489.689
1217.38
1244.49
612.054
371.066
177.454
78.2123
38.129
22.8981
17.4365
15.4572
14.9995
15.0851
15.6555
17.6029
23.8546
44.4137
83.2405
149.005
305.362
544.978
1217.34
1244.02
563.634
323.811
153.561
69.7038
35.6404
22.1848
17.2656
15.5939
15.0976
15.2214
16.058
18.625
25.666
42.7014
94.1792
191.508
374.168
612.433
1217.3
1243.91
499.884
249.118
133.262
62.9436
33.5157
21.4066
17.0262
15.5449
15.1475
15.2535
16.2369
19.6317
29.6509
50.9723
97.7029
198.277
384.324
617.063
1217.8
1243.61
548.02
289.552
117.702
51.6789
31.2251
20.6963
16.8513
15.4926
15.1274
15.2425
16.1894
18.825
26.312
50.3781
96.6358
193.934
376.527
616.114
1217.48
1243.53
604.528
341.156
150.368
65.981
34.0829
20.1179
16.3143
15.2363
15.0098
15.2625
16.5917
20.0797
29.0112
50.0544
96.6288
196.677
379.827
613.325
1218.15
1244.12
538.334
275.064
119.936
56.565
33.6041
21.3886
17.0191
15.5188
15.116
15.2076
15.6542
17.744
24.4323
47.3791
93.1763
190.464
370.323
609.654
1217.91
1244.37
606.272
362.287
168.937
73.8642
36.155
20.6117
16.3966
15.2496
15.0057
15.1735
15.856
18.6078
25.7716
44.5497
89.1559
189.024
370.993
603.987
1218.67
1243.84
547.537
300.471
151.817
68.6559
34.8097
21.8439
17.0745
15.5381
15.1398
15.2324
15.7297
16.9455
21.7599
37.2073
77.2104
170.973
352.981
590.194
1218.24
1243.94
620.671
364.753
136.044
56.352
29.9976
21.1447
16.9281
15.5302
15.1575
15.225
15.6475
16.3269
18.275
24.7941
49.7674
148.706
325.866
567.222
1218.3
1244.36
614.621
370.126
172.115
74.7643
36.4902
22.1652
16.6831
15.3329
15.1333
15.4984
16.4204
17.8997
20.9326
28.3702
46.0229
92.9843
226.938
473.116
1218.1
1243.73
547.179
300.228
152.955
69.2559
34.9508
21.7166
17.0583
15.5583
15.2435
15.5639
16.7049
19.4923
24.4181
36.28
62.6377
120.27
265.196
505.533
1217.86
1243.85
622.103
366.858
138.881
57.7014
30.7753
20.7687
16.9001
15.5339
15.237
15.5117
16.3615
20.0121
27.633
45.2391
84.5208
146.977
302.716
542.905
1217.56
1244.21
617.345
373.934
178.598
77.2864
37.2478
21.0414
16.5672
15.335
15.2057
15.5483
16.5197
19.1136
25.55
42.3655
93.7613
191.534
375.121
612.711
1217.47
1243.59
552.937
299.627
165.962
73.3208
36.9754
22.5492
17.3652
15.6386
15.2609
15.59
16.7243
21.2354
30.4633
50.9306
96.9322
198.027
385.717
617.766
1217.86
1243.69
635.075
382.76
180.18
65.8595
36.0012
22.5393
17.4221
15.653
15.2533
15.5654
16.6676
21.1829
30.4664
50.7958
95.4863
192.774
377.77
617.093
1217.45
1244.15
635.847
391.063
187.083
80.9755
38.1516
22.8651
17.4495
15.622
15.2311
15.5315
16.5732
20.8728
30.0609
50.2917
95.1607
194.528
380.804
614.591
1218.02
1243.86
627.556
376.727
177.591
77.8788
32.421
20.0411
16.8409
15.4698
15.1946
15.5093
16.4186
19.4042
29.3126
49.0852
92.5237
187.489
369.949
611.043
1217.66
1244.5
612.741
368.276
173.02
75.8146
36.8807
22.4063
17.25
15.4187
15.0994
15.5248
16.8991
20.4227
28.8093
47.8585
90.858
186.809
369.03
604.857
1218.35
1244.01
542.327
303.992
151.535
68.185
34.5716
21.7924
17.0912
15.5394
15.1667
15.3901
16.193
19.8774
27.6682
45.5325
86.0065
175.386
351.345
594.02
1218.13
1244.28
607.176
352.058
129.849
53.5442
28.3225
20.6232
16.7864
15.4802
15.1489
15.3735
16.1719
19.3225
26.3177
42.831
81.4066
167.613
339.892
577.125
1218.89
1244.88
594.399
349.757
161.005
69.6134
34.1932
21.2921
16.3513
15.3495
15.1103
15.3662
16.2706
18.7418
24.7485
39.107
71.5158
126.482
244.051
488.001
1218.45
1244.4
504.443
258.127
109.337
49.8827
26.7493
18.6468
16.0379
15.1902
15.0814
15.3191
16.0441
17.5684
21.3265
32.4009
73.7446
152.31
293.567
533.786
1218.56
1244.51
552.06
302.682
146.481
66.4832
33.7579
21.3659
16.9082
15.4701
15.1472
15.3484
15.994
18.7405
24.2863
35.1271
65.9354
168.702
347.329
589.604
1218.71
1244.59
611.76
362.203
168.431
61.6775
29.686
19.7503
16.5645
15.4128
15.1533
15.4035
16.1167
18.2489
24.1221
41.4872
76.8965
165.304
341.861
579.029
1219.39
1245.27
598.525
354.751
167.004
72.5055
35.2263
21.5743
16.4574
15.2278
15.1242
15.4704
16.6048
19.599
26.6452
39.894
60.8435
105.979
245.9
492.361
1218.94
1244.78
511.283
267.576
117.576
53.9994
28.7182
19.365
16.2882
15.2876
15.085
15.363
16.0653
18.6231
27.3273
44.6809
81.3431
150.291
308.591
547.421
1218.94
1244.88
563.895
315.625
159.093
71.4458
35.7807
22.1844
17.3216
15.6171
15.2589
15.5203
16.6714
19.3847
25.7169
42.6847
94.2329
193.125
377.936
614.913
1218.92
1244.95
633.244
387.277
186.781
69.4679
32.8219
20.8076
17.1963
15.6022
15.2996
15.8071
17.4437
21.4009
30.4659
51.0505
97.5969
199.901
388.566
619.845
1219.41
1245.58
632.071
394.468
194.878
85.8888
40.8546
23.8145
17.7382
15.5586
15.2125
15.5091
17.3204
21.2795
30.3076
50.6637
95.8997
194.409
379.963
618.459
1219
1245.01
618.035
379.122
181.461
79.9453
38.7725
23.1654
17.5642
15.6553
15.1046
15.4496
17.1208
20.9029
29.6642
49.7109
95.1032
196.058
382.423
614.905
1219.46
1244.83
594.975
352.303
165.604
72.512
35.6974
22.0447
17.1965
15.5487
15.0592
15.3414
16.8545
20.3772
28.6371
47.7203
91.1454
187.447
369.42
608.637
1218.82
1244.22
503.84
251.26
114.885
50.7032
27.0337
18.8461
16.0908
15.1864
14.9535
15.1834
16.2419
19.7531
27.4477