/*--------------------------------*- C++ -*----------------------------------*\
  =========                 |
  \\      /  F ield         | OpenFOAM: The Open Source CFD Toolbox
   \\    /   O peration     | Website:  https://openfoam.org
    \\  /    A nd           | Version:  6
     \\/     M anipulation  |
\*---------------------------------------------------------------------------*/
FoamFile
{
    version     2.0;
    format      ascii;
    class       volScalarField;
    location    "2";
    object      epsilon;
}
// * * * * * * * * * * * * * * * * * * * * * * * * * * * * * * * * * * * * * //

dimensions      [0 2 -3 0 0 0 0];

internalField   nonuniform List<scalar> 
130000
(
18.6428
18.8118
17.9212
16.7891
15.8737
15.2434
14.8451
14.6064
14.4698
14.394
14.3539
14.334
14.3265
14.3274
14.3362
14.3535
14.3816
14.422
14.4664
14.4953
18.4944
18.6959
17.8201
16.7191
15.8309
15.221
14.8354
14.6052
14.4733
14.4004
14.3612
14.342
14.3342
14.3348
14.3424
14.3584
14.3839
14.4223
14.4644
14.4925
18.5189
18.7051
17.8234
16.721
15.8305
15.2205
14.8345
14.6049
14.4722
14.3993
14.3595
14.3404
14.332
14.3326
14.3395
14.3554
14.3806
14.4176
14.4579
14.4877
18.5323
18.713
17.8272
16.7189
15.8268
15.2171
14.8312
14.6023
14.4696
14.3971
14.3572
14.3384
14.3297
14.3306
14.3373
14.3534
14.3782
14.415
14.4545
14.4833
18.5301
18.7089
17.8178
16.7106
15.8202
15.2125
14.8277
14.5999
14.4674
14.3954
14.3553
14.3367
14.3278
14.3289
14.3353
14.3518
14.3765
14.4137
14.4532
14.4824
18.5336
18.7099
17.8142
16.7056
15.8154
15.2085
14.8245
14.5977
14.4656
14.3942
14.3541
14.3358
14.3265
14.3276
14.3337
14.3504
14.3751
14.413
14.4529
14.4829
18.5462
18.7131
17.8124
16.7013
15.8103
15.2044
14.8213
14.5956
14.4641
14.3934
14.3534
14.3354
14.326
14.3274
14.3334
14.3505
14.3754
14.4141
14.4549
14.4855
18.5531
18.7118
17.8061
16.6953
15.8047
15.2001
14.8183
14.5938
14.4629
14.3928
14.3529
14.3352
14.3257
14.3272
14.333
14.3499
14.3743
14.4131
14.4539
14.4845
18.5497
18.7061
17.7999
16.6862
15.7969
15.1945
14.8147
14.5917
14.4617
14.3923
14.3527
14.3352
14.3257
14.3273
14.333
14.3499
14.374
14.4125
14.4519
14.4822
18.5493
18.6996
17.7865
16.6713
15.7848
15.1869
14.8102
14.5891
14.4601
14.3914
14.3521
14.335
14.3255
14.3272
14.3328
14.3498
14.3735
14.4115
14.4501
14.4802
18.555
18.6993
17.7805
16.6629
15.7791
15.1838
14.8078
14.5875
14.4591
14.3908
14.3518
14.3349
14.3255
14.3274
14.333
14.3502
14.3739
14.4122
14.4508
14.4811
18.5646
18.7055
17.7846
16.6653
15.7806
15.1828
14.8065
14.5865
14.4583
14.3904
14.3514
14.3348
14.3254
14.3275
14.3331
14.3505
14.3742
14.4127
14.4511
14.4813
18.5706
18.708
17.7819
16.663
15.7778
15.1809
14.8052
14.5857
14.4578
14.3902
14.3515
14.335
14.3256
14.3279
14.3336
14.3512
14.3752
14.414
14.4527
14.4829
18.5857
18.7159
17.7832
16.6621
15.7773
15.1796
14.8039
14.5847
14.4571
14.3899
14.3514
14.3352
14.3259
14.3284
14.3341
14.352
14.3761
14.4153
14.4542
14.4844
18.5969
18.7225
17.7883
16.6648
15.7756
15.1773
14.8021
14.5835
14.4567
14.3901
14.352
14.3362
14.3271
14.3297
14.3356
14.3536
14.3778
14.4171
14.456
14.4859
18.5996
18.7214
17.7812
16.6563
15.7681
15.1716
14.7985
14.5818
14.4565
14.3912
14.354
14.3388
14.3302
14.3331
14.3391
14.3567
14.3804
14.4189
14.4566
14.4854
18.5988
18.7162
17.7693
16.6427
15.7564
15.1632
14.7937
14.5798
14.4567
14.3925
14.3561
14.3413
14.3328
14.3356
14.3412
14.3579
14.3812
14.4193
14.457
14.4852
18.6042
18.7187
17.7658
16.6357
15.7499
15.1584
14.791
14.5782
14.4556
14.3911
14.3546
14.3393
14.3307
14.333
14.3384
14.3545
14.3782
14.4166
14.455
14.484
18.6254
18.7366
17.7747
16.6389
15.7523
15.16
14.7913
14.5769
14.4532
14.3877
14.351
14.3353
14.3269
14.3292
14.3356
14.3531
14.3777
14.4161
14.455
14.4837
18.6379
18.7481
17.7806
16.6424
15.7553
15.1604
14.7907
14.5758
14.4524
14.3869
14.3504
14.3347
14.3265
14.3288
14.3355
14.3532
14.3781
14.4167
14.4558
14.4846
18.6485
18.7622
17.7932
16.6515
15.7578
15.1615
14.7919
14.5764
14.4526
14.3867
14.3503
14.3343
14.3264
14.3285
14.3356
14.3529
14.3782
14.4165
14.4562
14.4844
18.6642
18.7811
17.8117
16.6657
15.7665
15.168
14.7953
14.5776
14.4534
14.3869
14.3507
14.3345
14.3267
14.3287
14.336
14.3534
14.3789
14.4173
14.4573
14.4855
18.6934
18.8051
17.8259
16.6741
15.774
15.1706
14.7964
14.5777
14.4534
14.3865
14.3505
14.334
14.3266
14.3282
14.3359
14.3528
14.3789
14.4168
14.4575
14.4851
18.7169
18.8241
17.8371
16.68
15.7772
15.1717
14.7969
14.5776
14.4534
14.3864
14.3508
14.3341
14.3269
14.3284
14.3363
14.3533
14.3797
14.4177
14.4588
14.4863
18.7319
18.8396
17.8477
16.6851
15.7791
15.1718
14.7966
14.5769
14.453
14.3857
14.3506
14.3337
14.3269
14.328
14.3364
14.353
14.3798
14.4175
14.4591
14.4859
18.7462
18.8531
17.857
16.6897
15.7813
15.1723
14.7967
14.5766
14.4532
14.386
14.3516
14.3348
14.3285
14.3297
14.3384
14.355
14.382
14.4196
14.4613
14.4878
18.7802
18.8815
17.8738
16.6979
15.7846
15.173
14.7966
14.576
14.453
14.3859
14.3521
14.3353
14.3294
14.3302
14.3392
14.3554
14.3828
14.42
14.462
14.4879
18.8131
18.91
17.8919
16.7076
15.7891
15.1744
14.7967
14.576
14.4536
14.3869
14.3535
14.3367
14.3308
14.3314
14.3407
14.357
14.3848
14.4223
14.4644
14.4897
18.8448
18.9383
17.9101
16.7177
15.7941
15.1763
14.7974
14.5765
14.454
14.3868
14.3531
14.336
14.3301
14.3309
14.3404
14.3567
14.385
14.4225
14.4647
14.489
18.8784
18.9677
17.9295
16.7288
15.8001
15.1797
14.7991
14.5762
14.4524
14.3843
14.3502
14.3329
14.3269
14.3276
14.3373
14.354
14.3829
14.4211
14.4645
14.4895
18.9121
18.9965
17.9482
16.7394
15.8057
15.1823
14.8002
14.5765
14.4524
14.3843
14.3503
14.3331
14.3276
14.3277
14.3376
14.3544
14.3837
14.4222
14.4659
14.4906
18.9466
19.0258
17.9671
16.7501
15.8112
15.1849
14.8011
14.577
14.4529
14.3847
14.3507
14.3337
14.3281
14.3285
14.3385
14.3558
14.3856
14.425
14.4685
14.4928
18.9822
19.0572
17.9872
16.7615
15.8172
15.1878
14.8024
14.5779
14.4536
14.3853
14.3512
14.3339
14.3282
14.3293
14.3398
14.3574
14.3877
14.4273
14.4702
14.4945
19.0192
19.0902
18.0086
16.7737
15.8237
15.1914
14.8047
14.5798
14.4551
14.3865
14.3523
14.3349
14.3294
14.3309
14.342
14.3602
14.3902
14.4283
14.4719
14.496
19.0574
19.124
18.0306
16.7864
15.8306
15.1952
14.8074
14.5816
14.4569
14.3879
14.3536
14.3363
14.3309
14.3327
14.3444
14.3629
14.392
14.4295
14.4736
14.4977
19.0973
19.159
18.0534
16.7995
15.8374
15.1986
14.8089
14.5822
14.4574
14.3891
14.3554
14.3386
14.3331
14.3346
14.3455
14.3626
14.3909
14.4302
14.4748
14.499
19.1397
19.1975
18.0785
16.8141
15.8451
15.2024
14.8105
14.5827
14.457
14.3896
14.3558
14.3389
14.3332
14.3344
14.3444
14.3608
14.3911
14.4314
14.4765
14.5008
19.1845
19.2383
18.1056
16.83
15.8535
15.2066
14.8123
14.5831
14.4562
14.3873
14.3527
14.3356
14.3298
14.3313
14.3421
14.3605
14.3916
14.4326
14.4781
14.5024
19.2316
19.2808
18.134
16.8468
15.8626
15.2114
14.8147
14.5843
14.4567
14.3874
14.3526
14.3355
14.3297
14.3314
14.3424
14.3613
14.3928
14.4343
14.4802
14.5045
19.2809
19.3249
18.1635
16.8643
15.8722
15.2164
14.8172
14.5856
14.4573
14.3878
14.3529
14.3358
14.3299
14.3318
14.3429
14.3621
14.394
14.436
14.4822
14.5064
19.3331
19.3727
18.1955
16.8834
15.8827
15.222
14.8201
14.5872
14.4583
14.3885
14.3534
14.3364
14.3305
14.3325
14.3438
14.3634
14.3956
14.4381
14.4847
14.5089
19.3884
19.4231
18.2296
16.9038
15.894
15.2281
14.8232
14.5889
14.4592
14.3892
14.3539
14.3369
14.331
14.3332
14.3446
14.3645
14.3971
14.4402
14.4871
14.5112
19.447
19.4761
18.2655
16.9255
15.9062
15.2347
14.8268
14.591
14.4605
14.3902
14.3547
14.3377
14.3318
14.3341
14.3457
14.366
14.399
14.4428
14.4901
14.5142
19.5098
19.5322
18.3037
16.9486
15.9192
15.2418
14.8305
14.5931
14.4617
14.391
14.3554
14.3384
14.3325
14.335
14.3467
14.3674
14.4009
14.4453
14.493
14.5171
19.5767
19.5939
18.3457
16.9743
15.9337
15.2498
14.8348
14.5956
14.4632
14.3922
14.3563
14.3394
14.3334
14.3361
14.3481
14.3693
14.4032
14.4483
14.4965
14.5206
19.6484
19.6603
18.3915
17.0023
15.9496
15.2586
14.8396
14.5984
14.4648
14.3934
14.3573
14.3403
14.3343
14.3372
14.3494
14.371
14.4055
14.4513
14.5
14.524
19.7245
19.7302
18.4399
17.0323
15.9669
15.2683
14.845
14.6016
14.4669
14.3949
14.3585
14.3415
14.3356
14.3387
14.3511
14.3732
14.4083
14.4548
14.5041
14.5281
19.8044
19.803
18.4906
17.0636
15.9849
15.2784
14.8507
14.6049
14.469
14.3965
14.3598
14.3428
14.3368
14.3401
14.3528
14.3754
14.4111
14.4585
14.5083
14.5322
19.8875
19.88
18.5443
17.0971
16.0044
15.2895
14.857
14.6087
14.4714
14.3984
14.3614
14.3443
14.3384
14.3419
14.3549
14.3781
14.4144
14.4627
14.5132
14.5371
19.9726
19.9606
18.6018
17.1335
16.0259
15.3018
14.864
14.6129
14.4742
14.4005
14.3631
14.346
14.34
14.3437
14.3571
14.3808
14.4179
14.4671
14.5182
14.542
20.0715
20.053
18.6675
17.175
16.0505
15.316
14.8722
14.6179
14.4775
14.403
14.3652
14.348
14.342
14.346
14.3597
14.384
14.4219
14.4721
14.5241
14.5478
20.1872
20.1574
18.7408
17.221
16.0776
15.3316
14.8812
14.6234
14.4811
14.4056
14.3674
14.3501
14.3442
14.3484
14.3624
14.3874
14.4261
14.4774
14.5302
14.5538
20.3037
20.2663
18.8182
17.2701
16.1068
15.3485
14.8911
14.6295
14.4852
14.4088
14.3701
14.3527
14.3467
14.3512
14.3657
14.3914
14.431
14.4835
14.5372
14.5607
20.4267
20.3814
18.9007
17.3228
16.1384
15.3669
14.902
14.6362
14.4897
14.4122
14.3731
14.3555
14.3496
14.3543
14.3692
14.3957
14.4363
14.49
14.5446
14.568
20.558
20.5042
18.9891
17.3794
16.1725
15.387
14.9139
14.6437
14.4949
14.4163
14.3766
14.3588
14.3529
14.3579
14.3733
14.4005
14.4423
14.4973
14.553
14.5763
20.6988
20.6353
19.0839
17.4403
16.2093
15.4088
14.927
14.652
14.5007
14.4208
14.3805
14.3625
14.3567
14.3619
14.3779
14.406
14.4489
14.5053
14.5621
14.5853
20.85
20.7772
19.1865
17.5065
16.2495
15.4327
14.9415
14.6613
14.5073
14.4259
14.385
14.3668
14.361
14.3666
14.3831
14.4121
14.4563
14.5142
14.5724
14.5953
21.0127
20.9293
19.2971
17.5781
16.2932
15.4588
14.9575
14.6716
14.5146
14.4318
14.3902
14.3717
14.366
14.3718
14.389
14.419
14.4646
14.5242
14.5836
14.6064
21.1876
21.0927
19.4162
17.6555
16.3407
15.4874
14.9752
14.6832
14.523
14.4385
14.3961
14.3773
14.3717
14.3779
14.3958
14.4268
14.4739
14.5352
14.5962
14.6188
21.3769
21.2688
19.545
17.7395
16.3925
15.5188
14.9947
14.6961
14.5325
14.4461
14.4029
14.3839
14.3783
14.3849
14.4035
14.4357
14.4843
14.5477
14.6102
14.6326
21.5814
21.4608
19.6855
17.8315
16.4494
15.5535
15.0165
14.7107
14.5432
14.4548
14.4107
14.3913
14.3859
14.3928
14.4122
14.4456
14.4961
14.5615
14.6258
14.6479
21.8034
21.6685
19.8384
17.932
16.5119
15.592
15.0408
14.7272
14.5555
14.465
14.4198
14.4
14.3946
14.402
14.4223
14.4571
14.5095
14.5773
14.6434
14.6653
22.0434
21.8929
20.004
18.0414
16.5804
15.6343
15.0679
14.7457
14.5695
14.4765
14.4303
14.41
14.4048
14.4126
14.4339
14.47
14.5246
14.5948
14.663
14.6845
22.3046
22.1357
20.184
18.1606
16.6554
15.6811
15.0982
14.7666
14.5855
14.4899
14.4425
14.4218
14.4166
14.4249
14.4472
14.4851
14.5419
14.6149
14.6853
14.7065
22.5883
22.4009
20.3804
18.2913
16.738
15.7329
15.132
14.7903
14.6038
14.5053
14.4566
14.4353
14.4303
14.439
14.4626
14.5021
14.5615
14.6373
14.7102
14.731
22.8985
22.6894
20.5953
18.4348
16.8293
15.7907
15.1701
14.8173
14.6249
14.5233
14.4731
14.4512
14.4463
14.4557
14.4804
14.5219
14.5841
14.6632
14.7387
14.7592
23.2368
23.004
20.83
18.5923
16.93
15.855
15.2129
14.8479
14.6491
14.544
14.4922
14.4696
14.4649
14.4748
14.501
14.5445
14.6098
14.6924
14.7709
14.7907
23.6087
23.3485
21.0881
18.7662
17.042
15.9271
15.2614
14.8832
14.6772
14.5684
14.5147
14.4914
14.4868
14.4975
14.5251
14.571
14.6396
14.7262
14.8078
14.8272
24.0173
23.7284
21.3728
18.959
17.1668
16.008
15.3164
14.9235
14.7097
14.5967
14.541
14.5168
14.5125
14.5238
14.5531
14.6014
14.6737
14.7645
14.8498
14.8684
24.4688
24.1466
21.688
19.1734
17.3066
16.0996
15.3794
14.9703
14.7479
14.6301
14.5722
14.5471
14.5429
14.5551
14.5861
14.6372
14.7136
14.8093
14.8984
14.9164
24.967
24.6076
22.0363
19.4118
17.4631
16.203
15.4514
15.0244
14.7923
14.6694
14.609
14.5828
14.5788
14.5917
14.6247
14.6788
14.7597
14.8606
14.954
14.9711
25.5207
25.1177
22.4233
19.6781
17.6394
16.3207
15.5343
15.0875
14.8448
14.7161
14.6529
14.6256
14.6218
14.6355
14.6706
14.7281
14.8139
14.9208
15.0189
15.0352
26.1361
25.6851
22.8545
19.9764
17.8384
16.4549
15.6299
15.1611
14.9065
14.7713
14.7049
14.676
14.6723
14.6871
14.7246
14.7857
14.8772
14.9905
15.0939
15.1089
26.8249
26.3175
23.3375
20.3127
18.0646
16.6092
15.7412
15.2479
14.98
14.8376
14.7675
14.7368
14.7331
14.7492
14.7892
14.8546
14.9521
15.0729
15.182
15.1959
27.5964
27.0248
23.8795
20.6928
18.3226
16.7871
15.8711
15.3505
15.0676
14.9171
14.8428
14.81
14.8062
14.8234
14.8663
14.9361
15.0405
15.1693
15.2849
15.2972
28.4679
27.8209
24.4924
21.1256
18.6192
16.9941
16.0243
15.4729
15.1733
15.0136
14.9345
14.8992
14.895
14.9136
14.9594
15.0343
15.1462
15.2842
15.4069
15.4175
29.4542
28.7216
25.1882
21.6207
18.9618
17.2361
16.2057
15.6196
15.301
15.1308
15.0461
15.0079
15.0031
15.0228
15.0718
15.152
15.2723
15.4202
15.5508
15.5591
30.5784
29.7449
25.9831
22.1911
19.3608
17.5216
16.4227
15.7972
15.457
15.275
15.1838
15.142
15.1361
15.1569
15.209
15.2952
15.4245
15.5836
15.7229
15.7287
31.8643
30.9132
26.8952
22.8515
19.8281
17.8605
16.6837
16.0135
15.6486
15.4528
15.3541
15.3078
15.3003
15.3217
15.3769
15.469
15.6082
15.7796
15.9287
15.9315
33.3475
32.257
27.9506
23.6229
20.3807
18.2669
17.0012
16.2797
15.8864
15.6747
15.5671
15.5153
15.5051
15.5266
15.5845
15.683
15.8329
16.0183
16.1787
16.179
35.0665
33.8131
29.1799
24.5305
21.0393
18.7584
17.3907
16.6102
16.184
15.9537
15.8355
15.7767
15.7624
15.7828
15.8428
15.9475
16.1094
16.311
16.4853
16.4822
37.0763
35.6291
30.625
25.6094
21.8331
19.3601
17.8745
17.0256
16.5612
16.3091
16.178
16.1102
16.09
16.1076
16.1689
16.2804
16.4559
16.676
16.8641
16.8586
39.4422
37.7661
32.3385
26.9043
22.8
20.1049
18.4825
17.5541
17.0449
16.7671
16.6202
16.5411
16.512
16.5238
16.5871
16.7063
16.8965
17.1346
17.3395
17.3293
42.2552
40.3066
34.3933
28.4772
23.9934
21.0399
19.2581
18.2367
17.675
17.3667
17.2007
17.1083
17.0692
17.0738
17.1365
17.2621
17.466
17.7249
17.9462
17.9259
45.6274
43.3561
36.8831
30.4099
25.4847
22.2295
20.2611
19.1309
18.5081
18.164
17.9754
17.8668
17.8158
17.8117
17.8701
17.998
18.2133
18.4903
18.7259
18.6917
49.7119
47.0571
39.9369
32.8157
27.3743
23.7652
21.578
20.3214
19.6281
19.2436
19.03
18.9038
18.84
18.8243
18.8695
18.9916
19.2131
19.5052
19.753
19.6974
54.7072
51.5977
43.7251
35.8458
29.7977
25.7723
23.3292
21.9269
21.1553
20.7288
20.4919
20.3515
20.2771
20.2429
20.2612
20.3637
20.585
20.8871
21.1406
21.0489
60.8776
57.2264
48.4726
39.6998
32.9346
28.4184
25.6771
24.1107
23.2577
22.7951
22.5473
22.4077
22.3277
22.2726
22.2572
22.3147
22.5235
22.8263
23.0725
22.9197
68.5569
64.2563
54.4594
44.624
37.0061
31.9104
28.8244
27.079
26.1514
25.6747
25.4473
25.3308
25.2563
25.1857
25.1323
25.142
25.3319
25.6278
25.8472
25.5925
78.1687
73.0751
62.0202
50.9031
42.2615
36.4791
32.9965
31.0626
30.0831
29.6365
29.4807
29.4356
29.4155
29.3818
29.3307
29.3123
29.5008
29.7917
29.9601
29.5406
90.2239
84.13
71.5141
58.8217
48.9342
42.3306
38.3905
36.2624
35.2698
34.9264
34.9166
35.0332
35.1908
35.3305
35.4256
35.5066
35.7939
36.0997
36.2
35.5327
105.312
97.9001
83.2766
68.5991
57.1674
49.5655
45.0862
42.7545
41.7939
41.6224
41.8542
42.3163
42.8584
43.4413
44.0495
44.6505
45.2193
45.6546
45.744
44.7686
124.065
114.837
97.5441
80.3045
66.919
58.0682
52.9187
50.3568
49.4626
49.5165
50.1456
51.1108
52.3376
53.7484
55.2993
56.8991
58.4384
59.6835
60.2067
59.0535
147.166
135.327
114.398
93.7887
77.8611
67.3577
61.2765
58.3195
57.3965
57.6695
58.8036
60.5841
62.9538
65.847
69.2096
72.8892
76.6305
79.9348
81.9878
81.2584
175.587
159.745
133.737
108.574
89.1911
76.324
68.7592
64.9686
63.7005
64.1109
65.8821
68.8278
72.9556
78.2928
84.8612
92.5274
100.902
109.033
115.245
116.626
211.336
189.633
156.483
124.54
99.8331
83.1312
73.0413
67.7407
65.7253
66.0983
68.5285
72.8521
79.2598
88.0958
99.8109
114.697
132.501
151.67
168.766
177.468
257.843
227.266
182.664
140.48
106.793
83.8267
69.996
62.701
59.7773
60.0543
63.1006
68.8685
77.9334
91.3405
110.646
137.683
173.892
218.38
264.9
299.89
321.225
275.246
212.277
151.528
104.032
73.826
57.0609
48.745
45.5136
45.7582
48.9148
55.1628
65.6056
82.4345
109.364
151.981
217.395
310.659
424.965
551.081
523.488
394.666
261.84
153.309
86.5871
52.5295
36.6623
29.7967
27.4576
27.7973
30.326
35.442
44.7315
61.817
94.3336
157.143
276.124
488.281
823.802
1263.58
1223.1
568.233
226.221
83.652
34.4237
19.4454
15.4169
14.5942
14.6659
15.0351
15.7098
17.0117
19.8879
27.0139
46.0545
98.2171
238.338
591.703
1390.03
2775.29
14.8922
14.8696
14.7407
14.6078
14.5021
14.4302
14.3853
14.3593
14.3452
14.339
14.3384
14.3431
14.3541
14.3743
14.4084
14.4629
14.5443
14.6531
14.7641
14.8211
14.8761
14.8497
14.7252
14.5958
14.4935
14.4239
14.3806
14.3553
14.3418
14.3355
14.3347
14.3387
14.3487
14.3674
14.3993
14.4507
14.5281
14.6321
14.7394
14.7946
14.8631
14.8352
14.713
14.5858
14.486
14.4178
14.3759
14.3511
14.3381
14.3318
14.3309
14.3344
14.3439
14.3614
14.3918
14.4408
14.515
14.6152
14.7201
14.7776
14.8528
14.827
14.7058
14.5797
14.4812
14.4138
14.3727
14.3482
14.3355
14.3292
14.3284
14.3317
14.3411
14.3581
14.388
14.4361
14.5093
14.6082
14.711
14.7648
14.8509
14.8232
14.7018
14.5757
14.477
14.4091
14.3678
14.3429
14.3302
14.3237
14.3229
14.3261
14.3356
14.3528
14.383
14.4315
14.5054
14.6051
14.7082
14.7612
14.8482
14.8194
14.6983
14.5713
14.4709
14.4021
14.3604
14.3351
14.3223
14.3156
14.3149
14.3182
14.3281
14.3455
14.3763
14.4253
14.5003
14.6019
14.7063
14.7606
14.8443
14.8169
14.6955
14.5675
14.4688
14.4004
14.3591
14.3339
14.3213
14.3146
14.3141
14.3174
14.3273
14.3447
14.3755
14.4243
14.4987
14.599
14.7051
14.7607
14.8385
14.8129
14.6925
14.566
14.468
14.4001
14.3593
14.3343
14.322
14.3155
14.3151
14.3183
14.3283
14.3456
14.3763
14.4247
14.4984
14.5973
14.7006
14.7553
14.8396
14.8135
14.6934
14.5671
14.4698
14.4025
14.3624
14.3379
14.326
14.3196
14.3193
14.3226
14.3326
14.3498
14.3802
14.4283
14.5016
14.5999
14.7025
14.7566
14.8409
14.8135
14.6929
14.5664
14.4693
14.4019
14.3619
14.3372
14.3253
14.3189
14.3186
14.3219
14.3319
14.3492
14.3799
14.4283
14.502
14.6008
14.7035
14.7576
14.8405
14.8121
14.6908
14.5633
14.4654
14.3972
14.3566
14.3315
14.3194
14.3128
14.3126
14.316
14.3264
14.3443
14.3758
14.4257
14.5017
14.6024
14.707
14.7618
14.8446
14.8131
14.6911
14.5631
14.4651
14.3967
14.3561
14.3309
14.3189
14.3123
14.3121
14.3155
14.3259
14.3439
14.3756
14.4259
14.5029
14.604
14.7097
14.7658
14.8457
14.8139
14.6919
14.5639
14.466
14.3977
14.3572
14.332
14.32
14.3134
14.3132
14.3166
14.327
14.3449
14.3764
14.4261
14.5014
14.6025
14.7088
14.7662
14.8437
14.8133
14.6921
14.5644
14.4667
14.3984
14.3581
14.333
14.3211
14.3144
14.3142
14.3176
14.3281
14.3459
14.3774
14.4269
14.5021
14.6028
14.7082
14.7651
14.8424
14.8142
14.6933
14.5656
14.4682
14.4
14.3599
14.3348
14.323
14.3164
14.3163
14.3197
14.3302
14.3482
14.3797
14.4294
14.5044
14.6049
14.7094
14.7635
14.8462
14.8165
14.6951
14.5671
14.4696
14.4015
14.3615
14.3366
14.325
14.3185
14.3185
14.3221
14.3328
14.351
14.3828
14.4328
14.5079
14.6082
14.7118
14.7647
14.8512
14.8195
14.6973
14.5692
14.4718
14.4039
14.3643
14.3397
14.3283
14.322
14.322
14.3257
14.3365
14.3549
14.3868
14.4367
14.5113
14.6106
14.7135
14.7658
14.8526
14.8201
14.6977
14.5701
14.4736
14.4066
14.3675
14.3433
14.3321
14.3259
14.3258
14.3294
14.3397
14.3577
14.3884
14.4368
14.5097
14.607
14.7091
14.7606
14.8542
14.8205
14.697
14.5696
14.473
14.406
14.3668
14.3425
14.3313
14.3249
14.3247
14.3279
14.3381
14.3554
14.3858
14.4328
14.5069
14.6062
14.7089
14.7602
14.855
14.82
14.6948
14.566
14.4685
14.401
14.3613
14.3368
14.3253
14.3189
14.3186
14.3221
14.3326
14.3507
14.3823
14.4321
14.507
14.607
14.7099
14.7611
14.8511
14.8172
14.6923
14.5643
14.467
14.3998
14.3602
14.3357
14.3243
14.3179
14.3177
14.3212
14.3319
14.35
14.382
14.4319
14.5073
14.6073
14.7105
14.7613
14.848
14.8156
14.6917
14.564
14.4668
14.3997
14.3601
14.3359
14.3244
14.3181
14.3179
14.3215
14.3322
14.3505
14.3826
14.4328
14.5084
14.6088
14.7123
14.7631
14.8502
14.8168
14.6919
14.5639
14.4663
14.3994
14.3597
14.3355
14.3241
14.3178
14.3176
14.3212
14.3319
14.3502
14.3825
14.4326
14.5086
14.6089
14.7128
14.7631
14.852
14.8182
14.6924
14.5642
14.4665
14.3997
14.36
14.3361
14.3246
14.3185
14.3182
14.3218
14.3325
14.351
14.3833
14.4337
14.5099
14.6107
14.7149
14.7653
14.8527
14.8187
14.6923
14.5642
14.4664
14.3999
14.3603
14.3366
14.3253
14.3191
14.3188
14.3223
14.3331
14.3512
14.3837
14.4339
14.5104
14.611
14.7156
14.7654
14.8547
14.8206
14.6937
14.5658
14.4683
14.4026
14.3635
14.3403
14.3291
14.3231
14.3227
14.3261
14.3366
14.3546
14.3866
14.4367
14.513
14.6137
14.7184
14.7682
14.8565
14.8223
14.6947
14.5668
14.4694
14.4043
14.3655
14.3427
14.3316
14.3257
14.3252
14.3283
14.3385
14.3559
14.3878
14.4377
14.5143
14.615
14.72
14.7691
14.86
14.8252
14.6969
14.5687
14.4709
14.4059
14.3669
14.3442
14.3331
14.3273
14.3268
14.3301
14.3405
14.3583
14.391
14.4415
14.5186
14.6192
14.7239
14.7726
14.8624
14.8271
14.6982
14.5692
14.4704
14.4046
14.365
14.3419
14.3306
14.3248
14.3245
14.3281
14.3391
14.3577
14.391
14.4423
14.5207
14.621
14.726
14.7744
14.866
14.8295
14.6983
14.5678
14.4675
14.4005
14.36
14.3365
14.3249
14.319
14.3186
14.3227
14.3341
14.3534
14.3877
14.4405
14.5209
14.6227
14.7291
14.7777
14.8693
14.8323
14.7004
14.5692
14.4681
14.4009
14.3601
14.3366
14.3248
14.319
14.3186
14.3228
14.3343
14.354
14.3885
14.4416
14.5218
14.6255
14.7324
14.7807
14.8735
14.8359
14.7035
14.5715
14.4699
14.4025
14.3615
14.338
14.3262
14.3205
14.32
14.3244
14.336
14.356
14.391
14.4451
14.5262
14.6296
14.7365
14.7847
14.8772
14.8389
14.7058
14.5737
14.472
14.4047
14.3637
14.3403
14.3284
14.3229
14.3224
14.3269
14.3386
14.3589
14.3939
14.4483
14.529
14.6325
14.7401
14.7884
14.881
14.842
14.7079
14.577
14.4757
14.409
14.3682
14.345
14.3331
14.3276
14.3271
14.3319
14.3439
14.3644
14.3987
14.4518
14.5308
14.6358
14.7438
14.792
14.8846
14.8447
14.7099
14.5786
14.4777
14.4121
14.3721
14.3493
14.3377
14.3319
14.3315
14.3359
14.3479
14.3679
14.4008
14.4532
14.5325
14.6386
14.7474
14.7958
14.888
14.8471
14.7108
14.5777
14.4761
14.4112
14.3714
14.3499
14.339
14.3332
14.3327
14.3363
14.3467
14.3653
14.3975
14.4517
14.5337
14.6414
14.7509
14.7994
14.8916
14.8498
14.7122
14.578
14.4749
14.4077
14.3674
14.3471
14.3356
14.3306
14.3294
14.333
14.3418
14.3619
14.3972
14.4528
14.5359
14.6447
14.755
14.8034
14.8954
14.8527
14.714
14.5789
14.475
14.407
14.3652
14.3421
14.3298
14.3247
14.3239
14.3289
14.3405
14.3619
14.398
14.4545
14.5383
14.648
14.759
14.8075
14.8994
14.8559
14.7161
14.5803
14.4757
14.4074
14.3653
14.3421
14.3297
14.3246
14.3239
14.3291
14.3411
14.3629
14.3994
14.4566
14.5412
14.6519
14.7636
14.8121
14.9035
14.8592
14.7183
14.5817
14.4767
14.4081
14.3659
14.3426
14.3301
14.3252
14.3244
14.3298
14.3419
14.364
14.4009
14.4587
14.5441
14.6558
14.7682
14.8168
14.9078
14.8627
14.7208
14.5835
14.4779
14.4091
14.3666
14.3433
14.3308
14.3259
14.3252
14.3307
14.343
14.3654
14.4027
14.4613
14.5475
14.6603
14.7735
14.8222
14.9124
14.8666
14.7236
14.5855
14.4792
14.4101
14.3675
14.3441
14.3316
14.3267
14.326
14.3317
14.344
14.3668
14.4045
14.4638
14.5509
14.6649
14.779
14.8277
14.9183
14.8716
14.7273
14.588
14.4811
14.4116
14.3686
14.3452
14.3326
14.3278
14.327
14.3328
14.3454
14.3686
14.4068
14.4668
14.5549
14.6701
14.7852
14.834
14.9253
14.8774
14.7315
14.5909
14.4831
14.4131
14.3699
14.3464
14.3337
14.3289
14.3281
14.3341
14.3468
14.3704
14.409
14.4699
14.559
14.6755
14.7916
14.8405
14.9322
14.8833
14.7359
14.5941
14.4854
14.4149
14.3714
14.3478
14.335
14.3303
14.3296
14.3357
14.3486
14.3725
14.4117
14.4735
14.5637
14.6815
14.7988
14.8478
14.9395
14.8896
14.7406
14.5975
14.4879
14.4169
14.3731
14.3493
14.3365
14.3318
14.3311
14.3373
14.3505
14.3748
14.4146
14.4772
14.5685
14.6879
14.8064
14.8555
14.9476
14.8965
14.7459
14.6014
14.4908
14.4193
14.3751
14.3512
14.3384
14.3336
14.333
14.3394
14.3527
14.3775
14.4179
14.4815
14.5741
14.695
14.8148
14.8641
14.9562
14.9041
14.7517
14.6057
14.4941
14.4219
14.3774
14.3533
14.3404
14.3356
14.335
14.3416
14.3552
14.3804
14.4214
14.486
14.58
14.7026
14.8238
14.8732
14.9658
14.9125
14.7583
14.6107
14.4979
14.425
14.3801
14.3558
14.3428
14.3381
14.3375
14.3442
14.3581
14.3837
14.4255
14.4912
14.5866
14.711
14.8337
14.8834
14.9763
14.9216
14.7655
14.6161
14.5021
14.4284
14.3831
14.3586
14.3455
14.3408
14.3402
14.3471
14.3612
14.3874
14.4299
14.4967
14.5937
14.72
14.8444
14.8942
14.9878
14.9318
14.7736
14.6223
14.507
14.4325
14.3867
14.362
14.3488
14.344
14.3435
14.3505
14.365
14.3916
14.435
14.503
14.6017
14.73
14.8562
14.9063
15.0004
14.943
14.7825
14.6292
14.5124
14.437
14.3907
14.3657
14.3524
14.3476
14.3472
14.3544
14.3691
14.3964
14.4405
14.5099
14.6103
14.7409
14.869
14.9193
15.0143
14.9554
14.7925
14.637
14.5187
14.4423
14.3955
14.3701
14.3567
14.3518
14.3515
14.3588
14.374
14.4018
14.4469
14.5176
14.62
14.7529
14.8831
14.9337
15.0297
14.9691
14.8037
14.6458
14.5258
14.4483
14.4008
14.3751
14.3616
14.3567
14.3564
14.364
14.3795
14.4079
14.454
14.5262
14.6307
14.7661
14.8985
14.9495
15.0466
14.9843
14.8162
14.6557
14.5339
14.4552
14.4071
14.381
14.3673
14.3623
14.3621
14.3699
14.3858
14.4149
14.4621
14.5359
14.6426
14.7807
14.9156
14.9669
15.0654
15.0013
14.8301
14.6669
14.5431
14.463
14.4142
14.3877
14.3738
14.3688
14.3687
14.3767
14.393
14.4228
14.4712
14.5467
14.6558
14.7969
14.9344
14.9861
15.0862
15.0201
14.8458
14.6795
14.5536
14.4721
14.4225
14.3955
14.3815
14.3763
14.3764
14.3845
14.4014
14.4319
14.4816
14.5589
14.6706
14.8149
14.9553
15.0073
15.1094
15.0412
14.8634
14.6938
14.5656
14.4825
14.4321
14.4045
14.3903
14.3851
14.3852
14.3936
14.411
14.4424
14.4933
14.5727
14.6872
14.835
14.9784
15.0309
15.1352
15.0647
14.8833
14.7101
14.5793
14.4946
14.4432
14.415
14.4006
14.3952
14.3956
14.4042
14.4221
14.4543
14.5068
14.5883
14.7059
14.8573
15.0041
15.0571
15.164
15.0911
14.9057
14.7286
14.5951
14.5085
14.456
14.4272
14.4126
14.4071
14.4076
14.4165
14.435
14.4682
14.5222
14.6061
14.727
14.8825
15.0329
15.0864
15.1963
15.1208
14.931
14.7498
14.6132
14.5245
14.471
14.4415
14.4265
14.4209
14.4216
14.4307
14.4499
14.4841
14.5399
14.6263
14.7508
14.9106
15.065
15.1191
15.2327
15.1543
14.9598
14.774
14.6341
14.5432
14.4884
14.4581
14.4429
14.4372
14.438
14.4475
14.4674
14.5027
14.5603
14.6495
14.7779
14.9426
15.1013
15.1561
15.2736
15.1921
14.9925
14.8017
14.6582
14.5649
14.5087
14.4776
14.462
14.4561
14.4571
14.467
14.4877
14.5242
14.5839
14.676
14.8088
14.9785
15.142
15.1974
15.32
15.2351
15.03
14.8337
14.6862
14.5903
14.5326
14.5005
14.4845
14.4785
14.4797
14.49
14.5115
14.5493
14.6112
14.7067
14.8441
15.0196
15.1881
15.2445
15.3725
15.284
15.0728
14.8706
14.7188
14.6199
14.5606
14.5275
14.511
14.5048
14.5063
14.5169
14.5394
14.5786
14.643
14.7419
14.8845
15.0662
15.2404
15.2975
15.4325
15.34
15.1222
14.9134
14.7568
14.6548
14.5936
14.5594
14.5424
14.5361
14.5378
14.549
14.5724
14.6132
14.6802
14.7831
14.9313
15.1199
15.3002
15.3584
15.5011
15.4042
15.1791
14.9631
14.8013
14.6958
14.6326
14.5971
14.5796
14.5731
14.5752
14.5867
14.6113
14.6538
14.7237
14.8309
14.9853
15.1813
15.3685
15.4275
15.58
15.4782
15.2453
15.0214
14.8538
14.7444
14.679
14.6422
14.624
14.6173
14.6198
14.6319
14.6576
14.7021
14.7751
14.8871
15.0482
15.2527
15.4472
15.5075
15.671
15.5639
15.3223
15.0898
14.9158
14.8021
14.7343
14.696
14.6771
14.6701
14.673
14.6858
14.7128
14.7592
14.8358
14.9529
15.1216
15.3351
15.5378
15.5992
15.7767
15.6639
15.4128
15.1706
14.9896
14.8712
14.8007
14.7607
14.7411
14.7338
14.7372
14.7506
14.779
14.8278
14.9082
15.0311
15.2079
15.4316
15.6434
15.7061
15.9001
15.7807
15.5192
15.2665
15.0777
14.9541
14.8806
14.8388
14.8183
14.8107
14.8146
14.8288
14.8587
14.9099
14.9945
15.1236
15.3097
15.5444
15.7663
15.8303
16.045
15.9185
15.6455
15.3811
15.1837
15.0543
14.9775
14.9337
14.9122
14.9044
14.9089
14.9238
14.9554
15.0093
15.0985
15.2346
15.4307
15.6779
15.9108
15.9763
16.2162
16.0817
15.7961
15.5188
15.3118
15.1761
15.0957
15.0496
15.027
15.0188
15.024
15.0397
15.0731
15.1297
15.224
15.3677
15.5751
15.8359
16.0811
16.148
16.4201
16.2768
15.9773
15.6856
15.4681
15.3254
15.241
15.1925
15.1686
15.1599
15.1658
15.1824
15.2176
15.2773
15.377
15.5292
15.7489
16.0253
16.2841
16.3526
16.6645
16.5114
16.1967
15.8893
15.66
15.5097
15.4208
15.3696
15.3442
15.3347
15.3415
15.3589
15.3959
15.4588
15.5643
15.7256
15.9592
16.2528
16.5276
16.598
16.9605
16.7964
16.4653
16.1405
15.8983
15.7396
15.6459
15.5917
15.5643
15.5537
15.5609
15.5794
15.6183
15.6844
15.796
15.9674
16.2163
16.5295
16.8217
16.8957
17.3221
17.146
16.797
16.4532
16.1969
16.0291
15.9304
15.873
15.8432
15.83
15.8361
15.8573
15.8981
15.9672
16.085
16.2669
16.5326
16.8669
17.1788
17.2582
17.7692
17.5799
17.212
16.8476
16.5762
16.3988
16.2951
16.2348
16.2031
16.1876
16.1922
16.2138
16.2551
16.3266
16.4504
16.6437
16.928
17.2862
17.6193
17.7058
18.3285
18.1252
17.7378
17.3513
17.0638
16.8766
16.7682
16.7057
16.6722
16.6536
16.6547
16.6753
16.7161
16.7888
16.9183
17.1235
17.4279
17.8124
18.1732
18.2657
19.0386
18.8207
18.4139
18.0043
17.7
17.5031
17.3906
17.3266
17.2918
17.2688
17.2635
17.2814
17.3198
17.3925
17.527
17.7446
18.0718
18.4866
18.8769
18.9747
19.9531
19.7207
19.2958
18.8625
18.5411
18.3348
18.2193
18.1542
18.1167
18.0882
18.0753
18.0863
18.1199
18.1906
18.3304
18.5628
18.9128
19.359
19.7825
19.8829
21.1485
20.9023
20.4624
20.0053
19.6668
19.452
19.3354
19.2713
19.2321
19.1997
19.1756
19.163
19.1931
19.2596
19.4023
19.6489
20.0254
20.5057
20.9616
21.0625
22.7308
22.4718
22.0213
21.5406
21.1848
20.9623
20.8468
20.7856
20.7427
20.7014
20.6638
20.6314
20.6405
20.7034
20.8479
21.1032
21.5015
22.0195
22.5118
22.6109
24.8451
24.5735
24.1174
23.6127
23.2381
23.0074
22.8947
22.8381
22.7895
22.7366
22.6849
22.6324
22.6117
22.6566
22.7938
23.0566
23.4784
24.0357
24.5684
24.6638
27.6795
27.393
26.9354
26.4043
26.0079
25.7667
25.6548
25.5981
25.5372
25.4653
25.3903
25.3109
25.2633
25.2835
25.4026
25.6647
26.1153
26.7206
27.3049
27.3987
31.4696
31.1596
30.7004
30.1387
29.7173
29.4629
29.342
29.2635
29.1809
29.0842
28.982
28.8745
28.7967
28.7801
28.8724
29.1356
29.6219
30.2911