/*--------------------------------*- C++ -*----------------------------------*\
  =========                 |
  \\      /  F ield         | OpenFOAM: The Open Source CFD Toolbox
   \\    /   O peration     | Website:  https://openfoam.org
    \\  /    A nd           | Version:  6
     \\/     M anipulation  |
\*---------------------------------------------------------------------------*/
FoamFile
{
    version     2.0;
    format      ascii;
    class       volScalarField;
    location    "2";
    object      k;
}
// * * * * * * * * * * * * * * * * * * * * * * * * * * * * * * * * * * * * * //

dimensions      [0 2 -2 0 0 0 0];

internalField   nonuniform List<scalar> 
10000
(
0.745961
0.958303
0.787192
0.567214
0.469579
0.421459
0.394779
0.383835
0.379499
0.378267
0.37935
0.382722
0.389859
0.405621
0.435934
0.483371
0.580098
0.746056
0.907118
0.754641
0.697302
0.876478
0.707499
0.52906
0.450943
0.408533
0.389691
0.381983
0.377949
0.376529
0.377438
0.380433
0.3863
0.398179
0.423283
0.467863
0.542844
0.674323
0.822221
0.699418
0.698907
0.884054
0.712392
0.529072
0.447287
0.404975
0.387148
0.380475
0.376937
0.375482
0.376265
0.379153
0.384494
0.395076
0.417573
0.460603
0.543338
0.678798
0.81354
0.700136
0.698204
0.873231
0.701762
0.527839
0.448783
0.405423
0.387302
0.380389
0.376642
0.375085
0.375835
0.378701
0.383963
0.394417
0.417089
0.459903
0.538762
0.673015
0.80972
0.692173
0.712195
0.89014
0.708634
0.524383
0.443329
0.402303
0.386124
0.379761
0.376365
0.375035
0.375911
0.378881
0.384105
0.394371
0.416762
0.458621
0.533489
0.674898
0.863383
0.700893
0.694505
0.855948
0.708273
0.52914
0.448341
0.404574
0.386454
0.379551
0.376068
0.374956
0.376025
0.379187
0.384311
0.393927
0.415397
0.455855
0.5313
0.671854
0.851862
0.700362
0.687903
0.85425
0.699304
0.525509
0.447911
0.404713
0.386944
0.380074
0.376337
0.374991
0.375961
0.379004
0.384206
0.394205
0.416672
0.458359
0.529507
0.66503
0.839217
0.699518
0.699526
0.86324
0.695677
0.523754
0.448782
0.404177
0.386854
0.380373
0.37664
0.375092
0.375888
0.378911
0.383979
0.393996
0.416122
0.458619
0.53114
0.66022
0.802726
0.689949
0.709648
0.87017
0.694312
0.523241
0.444244
0.402943
0.386111
0.380002
0.376521
0.375013
0.375822
0.378863
0.384087
0.394281
0.416682
0.458695
0.533581
0.663839
0.80032
0.690528
0.712943
0.90358
0.703884
0.52276
0.445674
0.403026
0.385734
0.37959
0.376288
0.374949
0.375795
0.378769
0.384026
0.394437
0.417529
0.460295
0.534108
0.664606
0.805299
0.688834
0.694228
0.857769
0.706133
0.527798
0.447716
0.404086
0.38614
0.379666
0.376218
0.37487
0.37574
0.378673
0.383925
0.394382
0.417193
0.459742
0.53686
0.670869
0.810874
0.688725
0.686883
0.857945
0.701298
0.527025
0.450327
0.405296
0.386327
0.379621
0.376175
0.374839
0.375718
0.378691
0.383807
0.393905
0.416006
0.456502
0.530642
0.670879
0.858235
0.704907
0.689327
0.849443
0.702837
0.526879
0.447199
0.404019
0.386167
0.379631
0.376159
0.37485
0.375766
0.378757
0.383947
0.394097
0.416762
0.457614
0.528669
0.6636
0.836286
0.697156
0.682572
0.850378
0.696293
0.525264
0.449281
0.405025
0.386252
0.379498
0.376069
0.37484
0.375813
0.37886
0.383885
0.39411
0.416873
0.458691
0.530404
0.658879
0.801042
0.688918
0.692668
0.846249
0.697853
0.525982
0.446819
0.404031
0.386376
0.379707
0.376149
0.374852
0.375793
0.378799
0.383911
0.394145
0.416647
0.458403
0.532484
0.662059
0.798494
0.689528
0.70448
0.856037
0.695113
0.525901
0.448619
0.40531
0.386754
0.379828
0.376253
0.374897
0.375778
0.37878
0.383905
0.394331
0.417451
0.459969
0.532726
0.66198
0.802654
0.6878
0.710909
0.895619
0.697283
0.519571
0.444371
0.402509
0.385336
0.379205
0.375952
0.374753
0.37571
0.378688
0.383886
0.39431
0.417103
0.459501
0.535315
0.66671
0.806012
0.687725
0.696101
0.853729
0.698714
0.52496
0.44613
0.40341
0.385937
0.379547
0.376122
0.374802
0.375721
0.378702
0.38396
0.394471
0.41751
0.4601
0.535436
0.667577
0.845743
0.700074
0.692738
0.860895
0.689987
0.523243
0.448361
0.404439
0.386115
0.37959
0.376172
0.374859
0.375739
0.378776
0.383817
0.393996
0.416166
0.457579
0.533304
0.663926
0.806502
0.688421
0.716131
0.895201
0.702794
0.52633
0.446677
0.403644
0.386108
0.379692
0.376199
0.374849
0.37569
0.378573
0.383843
0.394323
0.417074
0.459425
0.536375
0.670113
0.810456
0.687968
0.709444
0.892026
0.698248
0.526441
0.449415
0.404843
0.386254
0.379655
0.376165
0.374848
0.375773
0.378639
0.383927
0.394497
0.417446
0.458192
0.531562
0.670525
0.858126
0.704298
0.696242
0.854755
0.701025
0.526757
0.44698
0.403858
0.386157
0.379713
0.376254
0.374911
0.375882
0.378836
0.38402
0.39425
0.416866
0.458845
0.533596
0.666384
0.837794
0.696747
0.692813
0.86137
0.692929
0.525735
0.449216
0.40486
0.386223
0.379609
0.376227
0.374977
0.375988
0.378946
0.384088
0.394143
0.415957
0.456655
0.528845
0.662057
0.804644
0.688558
0.715504
0.894064
0.706946
0.53025
0.447978
0.404178
0.386291
0.379674
0.376217
0.374979
0.376002
0.379145
0.384315
0.394828
0.417494
0.460065
0.536845
0.669768
0.80828
0.688764
0.704578
0.879499
0.704192
0.523884
0.447866
0.404571
0.386182
0.379434
0.375995
0.37484
0.375929
0.378968
0.384449
0.395288
0.418641
0.461494
0.537655
0.675686
0.856331
0.700254
0.68675
0.846745
0.706466
0.529328
0.448324
0.404604
0.386283
0.379505
0.37606
0.374827
0.375824
0.378701
0.383915
0.393978
0.415504
0.45621
0.532098
0.671955
0.853
0.698841
0.679036
0.844519
0.700356
0.527264
0.447942
0.404381
0.38624
0.379522
0.37609
0.374895
0.375869
0.378643
0.38388
0.393951
0.415645
0.456772
0.53395
0.675521
0.856723
0.700103
0.680486
0.848028
0.693936
0.52542
0.447673
0.404209
0.386372
0.379711
0.376186
0.374944
0.37582
0.378656
0.383834
0.393808
0.415432
0.456126
0.532342
0.67313
0.854214
0.699032
0.681621
0.885591
0.699218
0.521956
0.447191
0.403736
0.386507
0.379966
0.376393
0.375003
0.37587
0.378732
0.383809
0.393893
0.415445
0.45577
0.530487
0.67032
0.851019
0.69876
0.677328
0.849855
0.69526
0.523562
0.447197
0.40312
0.385751
0.379581
0.376284
0.374973
0.375916
0.378852
0.383997
0.394158
0.416555
0.457759
0.52952
0.66397
0.837679
0.697596
0.680136
0.843935
0.696808
0.524675
0.446119
0.403506
0.386347
0.379848
0.376342
0.375002
0.375957
0.378942
0.384108
0.394178
0.416331
0.458331
0.530509
0.659247
0.801823
0.688179
0.682622
0.849999
0.69468
0.525061
0.448721
0.404695
0.385976
0.379372
0.376054
0.374872
0.375918
0.378935
0.384203
0.394564
0.417341
0.458336
0.532907
0.662903
0.799574
0.688894
0.68814
0.847057
0.693604
0.526015
0.446806
0.404095
0.38645
0.379857
0.37637
0.374994
0.375886
0.378808
0.38388
0.394055
0.416478
0.459475
0.533335
0.663707
0.804647
0.687357
0.693489
0.889696
0.704946
0.528687
0.44864
0.405485
0.386916
0.380018
0.376397
0.374993
0.375846
0.378703
0.383872
0.394306
0.41678
0.459132
0.536131
0.669945
0.810161
0.687378
0.692196
0.851837
0.695159
0.524802
0.445587
0.403261
0.385712
0.379387
0.376107
0.37492
0.375822
0.378699
0.383896
0.394464
0.415894
0.456167
0.529959
0.670058
0.857416
0.703725
0.688491
0.849187
0.692331
0.52576
0.44767
0.404934
0.386878
0.37988
0.376289
0.375024
0.375958
0.378844
0.383946
0.394151
0.416701
0.457932
0.528166
0.662742
0.835422
0.696079
0.703635
0.894611
0.696542
0.520999
0.445123
0.403164
0.38584
0.379449
0.376144
0.374972
0.375997
0.378938
0.384004
0.394011
0.416138
0.457903
0.529325
0.657611
0.800155
0.688039
0.691681
0.877398
0.696154
0.520577
0.447077
0.403822
0.38643
0.37979
0.376312
0.375035
0.376026
0.378978
0.384143
0.394311
0.416893
0.457797
0.531099
0.660251
0.797055
0.688915
0.676692
0.848434
0.694677
0.52381
0.447834
0.403499
0.385925
0.379691
0.376324
0.37505
0.375986
0.378931
0.384103
0.394339
0.41674
0.458964
0.53064
0.659014
0.799639
0.687711
0.679507
0.842739
0.696198
0.524906
0.446678
0.403852
0.386646
0.380174
0.376524
0.375158
0.376046
0.378987
0.384305
0.394928
0.417375
0.458812
0.5328
0.662405
0.798639
0.688648
0.681727
0.848461
0.693674
0.525281
0.449317
0.404963
0.386094
0.379443
0.37614
0.37498
0.375964
0.378871
0.384042
0.394314
0.41711
0.460096
0.533159
0.662874
0.803555
0.686985
0.686767
0.845386
0.691838
0.526107
0.44735
0.404186
0.386516
0.379896
0.376438
0.375161
0.376149
0.379008
0.384296
0.394547
0.417505
0.459947
0.535965
0.668312
0.808218
0.686838
0.691282
0.88841
0.702458
0.528304
0.448668
0.404893
0.386831
0.380061
0.376467
0.375171
0.376135
0.379078
0.384272
0.394725
0.417998
0.460616
0.535697
0.669458
0.851121
0.69691
0.68745
0.85056
0.696673
0.525124
0.44871
0.40404
0.386285
0.380125
0.376623
0.375286
0.376282
0.379202
0.384373
0.394405
0.416237
0.457054
0.532429
0.66612
0.819247
0.685609
0.67957
0.84567
0.698655
0.525915
0.447204
0.404459
0.386619
0.38012
0.376624
0.375234
0.376151
0.37928
0.384587
0.395144
0.417284
0.457811
0.531266
0.667091
0.851307
0.703535
0.697761
0.850599
0.6965
0.526222
0.449575
0.404597
0.386188
0.379646
0.376425
0.375176
0.37606
0.378936
0.38417
0.394775
0.417636
0.460059
0.536216
0.668616
0.809492
0.691155
0.706341
0.847871
0.695085
0.526718
0.448057
0.405218
0.387149
0.380071
0.376409
0.375134
0.376091
0.378995
0.384219
0.394861
0.416674
0.457217
0.530371
0.665462
0.842623
0.703832
0.711226
0.888427
0.702641
0.522667
0.44447
0.402863
0.385886
0.379612
0.376311
0.375155
0.376236
0.379223
0.384396
0.39468
0.417507
0.459374
0.532786
0.658379
0.800619
0.69326
0.707931
0.857815
0.700144
0.527596
0.448324
0.404291
0.386153
0.379702
0.376377
0.37518
0.376282
0.379357
0.38453
0.394494
0.416591
0.457714
0.5318
0.660358
0.801343
0.694582
0.710163
0.895793
0.708279
0.52413
0.444935
0.403918
0.38624
0.379686
0.376333
0.375144
0.376231
0.379378
0.384902
0.394925
0.417536
0.460057
0.534506
0.6639
0.799291
0.691946
0.690772
0.858526
0.706402
0.528592
0.449198
0.405058
0.386629
0.38001
0.376573
0.375253
0.376195
0.379207
0.384424
0.394541
0.416766
0.458514
0.534264
0.663925
0.801435
0.690833
0.684549
0.845989
0.704132
0.52916
0.447734
0.404423
0.386684
0.380174
0.376571
0.375262
0.37623
0.379218
0.3845
0.394912
0.417518
0.460188
0.537623
0.669798
0.802005
0.693007
0.686315
0.850376
0.703297
0.530098
0.448807
0.404855
0.38672
0.379859
0.376473
0.375263
0.376295
0.379132
0.384282
0.394427
0.416348
0.457135
0.532168
0.671106
0.845684
0.703714
0.687978
0.862013
0.701163
0.528794
0.447756
0.404512
0.386928
0.380074
0.376513
0.375289
0.376297
0.379225
0.384367
0.394337
0.415965
0.456413
0.529845
0.658011
0.800344
0.696056
0.694455
0.853565
0.696764
0.52571
0.448442
0.404079
0.38626
0.379893
0.376465
0.375329
0.376345
0.379395
0.384716
0.39471
0.41706
0.458956
0.533975
0.662982
0.803063
0.696108
0.69045
0.852037
0.694267
0.525825
0.447233
0.404889
0.387228
0.380412
0.376682
0.375329
0.376306
0.379288
0.384476
0.394353
0.415942
0.456624
0.529501
0.662866
0.804358
0.698902
0.699474
0.897221
0.701424
0.521809
0.444463
0.403494
0.386313
0.380135
0.376572
0.375262
0.37616
0.379105
0.384407
0.394701
0.417013
0.459206
0.536025
0.666777
0.803517
0.698583
0.689076
0.869411
0.694648
0.524479
0.448676
0.405245
0.386908
0.380597
0.376902
0.375352
0.376105
0.378936
0.384137
0.39429
0.415987
0.456226
0.52938
0.65846
0.802994
0.69794
0.700619
0.895958
0.70069
0.521394
0.444181
0.403665
0.386562
0.380331
0.376783
0.375298
0.3761
0.378992
0.384229
0.394415
0.416157
0.456774
0.530836
0.662631
0.807624
0.693532
0.686342
0.851662
0.702225
0.526734
0.446604
0.403737
0.386095
0.379788
0.376492
0.375192
0.376127
0.379131
0.38451
0.395103
0.417489
0.45967
0.534259
0.669901
0.84891
0.70404
0.688008
0.854825
0.699077
0.526778
0.448944
0.404892
0.386418
0.379702
0.376364
0.375129
0.376111
0.37913
0.384515
0.395187
0.417269
0.459784
0.534469
0.665345
0.808604
0.691837
0.693403
0.85185
0.698126
0.527859
0.446827
0.404113
0.386612
0.379938
0.37638
0.375101
0.376093
0.379042
0.384265
0.394385
0.416866
0.459541
0.537318
0.670443
0.810094
0.691537
0.698569
0.894862
0.709743
0.530724
0.448233
0.405251
0.386929
0.38003
0.376278
0.374985
0.37598
0.379145
0.384486
0.394627
0.41722
0.460026
0.537242
0.67164
0.850418
0.701581
0.69656
0.855778
0.70057
0.526306
0.444736
0.402744
0.38596
0.379734
0.376296
0.374974
0.375852
0.378851
0.384055
0.394103
0.415908
0.457407
0.534709
0.666777
0.81014
0.691714
0.694214
0.852183
0.699463
0.528526
0.446885
0.403951
0.38636
0.379772
0.376223
0.374869
0.375773
0.378709
0.383952
0.3942
0.416607
0.459201
0.53783
0.672969
0.813819
0.691099
0.711178
0.884845
0.702346
0.529882
0.449051
0.405338
0.386589
0.37963
0.376061
0.374768
0.37568
0.378606
0.383715
0.39374
0.415495
0.455904
0.531396
0.672575
0.861274
0.706793
0.715121
0.896321
0.696107
0.520363
0.443428
0.404214
0.386722
0.379826
0.376118
0.374775
0.375722
0.378666
0.384
0.394028
0.416163
0.456066
0.52895
0.664958
0.838718
0.69921
0.709804
0.892571
0.696077
0.52032
0.443125
0.402645
0.385899
0.379691
0.376082
0.374743
0.375681
0.378633
0.383758
0.393942
0.416579
0.458163
0.530492
0.659912
0.802823
0.691131
0.701175
0.888951
0.698736
0.521279
0.443696
0.402472
0.385594
0.379375
0.376044
0.374736
0.375667
0.378635
0.383876
0.39407
0.416591
0.458143
0.532401
0.663034
0.80032
0.691601
0.687862
0.867188
0.694053
0.524676
0.44872
0.40523
0.386752
0.379902
0.376238
0.37477
0.375633
0.37863
0.3838
0.394304
0.417682
0.45986
0.531902
0.662294
0.804434
0.689754
0.701816
0.894971
0.698613
0.521949
0.444872
0.403181
0.386264
0.379743
0.376203
0.374781
0.37572
0.378744
0.383887
0.393959
0.416209
0.459032
0.53358
0.666442
0.806825
0.68989
0.689002
0.853146
0.695277
0.526759
0.448104
0.404957
0.386687
0.379524
0.375921
0.374675
0.375712
0.378865
0.384046
0.394224
0.417032
0.460214
0.533175
0.667077
0.818834
0.687187
0.700268
0.894957
0.698225
0.521965
0.445455
0.403003
0.385506
0.379185
0.375844
0.374633
0.375673
0.378829
0.384337
0.394301
0.416426
0.45772
0.531181
0.667987
0.853791
0.706343
0.684898
0.877722
0.698395
0.522391
0.447619
0.404054
0.386383
0.379698
0.37608
0.37466
0.375514
0.378521
0.383838
0.394497
0.417804
0.46061
0.536414
0.670402
0.81352
0.693887
0.676091
0.846832
0.696122
0.524841
0.448723
0.403909
0.386285
0.37995
0.37633
0.374792
0.375551
0.378449
0.383763
0.394571
0.418287
0.461098
0.532725
0.670626
0.853862
0.703654
0.678704
0.840375
0.69777
0.525846
0.447465
0.403946
0.386134
0.37975
0.376311
0.374822
0.375578
0.378538
0.383703
0.394024
0.416599
0.459447
0.534051
0.668731
0.840337
0.70456
0.680961
0.844859
0.695492
0.526297
0.450249
0.404506
0.385766
0.379338
0.376198
0.374859
0.37572
0.378751
0.383983
0.39406
0.416331
0.456848
0.527585
0.659816
0.802023
0.696097
0.686332
0.840573
0.694815
0.526819
0.448454
0.404538
0.386264
0.379605
0.376056
0.37475
0.375637
0.378562
0.384001
0.394406
0.417434
0.459381
0.533679
0.663418
0.799974
0.696193
0.691327
0.886922
0.705728
0.529744
0.450888
0.405782
0.386252
0.379464
0.376005
0.374808
0.375738
0.378578
0.384024
0.394616
0.417718
0.458239
0.529076
0.6575
0.802219
0.694197
0.684055
0.860395
0.703925
0.530132
0.451777
0.40674
0.387109
0.379787
0.375985
0.374745
0.375721
0.378639
0.383843
0.394461
0.417761
0.459973
0.533625
0.667517
0.844087
0.7045
0.686724
0.834728
0.682223
0.519099
0.44547
0.403077
0.385535
0.379326
0.376035
0.374819
0.375759
0.378687
0.383977
0.39461
0.416861
0.457511
0.527582
0.660108
0.802689
0.693228
0.680619
0.873882
0.699049
0.527247
0.450694
0.405248
0.38664
0.379925
0.376288
0.374928
0.375775
0.37872
0.384022
0.394766
0.418203
0.46049
0.533758
0.664963
0.803497
0.690689
0.671714
0.833028
0.690208
0.526999
0.452214
0.405262
0.385992
0.379342
0.376139
0.374926
0.375849
0.378744
0.384072
0.394961
0.418736
0.4616
0.532685
0.664865
0.841908
0.703483
0.674327
0.826227
0.685951
0.527047
0.450822
0.405543
0.3866
0.37973
0.376276
0.374975
0.375864
0.378743
0.38409
0.395088
0.419402
0.46161
0.531869
0.659787
0.799716
0.69147
0.686117
0.864431
0.696178
0.529981
0.453705
0.406875
0.386849
0.379685
0.376266
0.375005
0.375862
0.378682
0.38388
0.394458
0.417341
0.46017
0.5333
0.663711
0.800451
0.690657
0.670726
0.819561
0.684197
0.526753
0.454127
0.407319
0.386662
0.379702
0.376317
0.375071
0.375947
0.378727
0.383916
0.394527
0.417351
0.457766
0.528302
0.662777
0.838878
0.708951
0.676974
0.814009
0.677539
0.524668
0.451937
0.407181
0.387088
0.379767
0.376296
0.375124
0.376048
0.378894
0.384067
0.394703
0.417807
0.459077
0.530113
0.658652
0.79641
0.691711
0.697816
0.860813
0.682556
0.520797
0.449483
0.406105
0.386566
0.379486
0.376273
0.37525
0.376215
0.378958
0.384065
0.394492
0.416834
0.457015
0.527758
0.661647
0.799863
0.692793
0.696734
0.850523
0.677904
0.520379
0.449831
0.406415
0.386882
0.379824
0.376576
0.375514
0.376399
0.379149
0.384255
0.394911
0.417961
0.458655
0.52845
0.665272
0.850314
0.700373
0.690974
0.845392
0.675939
0.520464
0.450156
0.406556
0.386758
0.380023
0.376933
0.375839
0.376609
0.379146
0.384233
0.394881
0.417922
0.45898
0.52673
0.6592
0.837604
0.692616
0.684528
0.839975
0.672137
0.520002
0.4513
0.408364
0.387758
0.380908
0.377687
0.376423
0.376951
0.379355
0.384209
0.394566
0.416857
0.456605
0.525649
0.658423
0.829602
0.693136
0.673883
0.831533
0.666108
0.521229
0.454795
0.409886
0.388705
0.381396
0.378284
0.377133
0.377689
0.379851
0.384566
0.394937
0.417346
0.456831
0.522614
0.652225
0.821934
0.682941
0.658779
0.812318
0.660162
0.518226
0.451326
0.406746
0.388348
0.381851
0.379077
0.378131
0.378697
0.380824
0.385232
0.395162
0.416621
0.454323
0.517463
0.64368
0.810672
0.669491
0.626662
0.791519
0.648249
0.516883
0.457221
0.410172
0.39103
0.384177
0.381325
0.380317
0.380848
0.382655
0.386549
0.395184
0.414706
0.449541
0.506861
0.624756
0.784997
0.642252
0.580812
0.756288
0.626209
0.508155
0.453215
0.412303
0.395257
0.388938
0.386034
0.38491
0.385317
0.38704
0.390299
0.397496
0.414883
0.444788
0.493257
0.597539
0.744904
0.597434
0.512651
0.69602
0.58745
0.491731
0.443107
0.414905
0.403707
0.399069
0.396418
0.395204
0.395574
0.397079
0.399599
0.404151
0.415969
0.442764
0.479173
0.56073
0.685425
0.52897
0.430004
0.612497
0.535831
0.474973
0.440479
0.425387
0.42043
0.417417
0.414939
0.413662
0.413992
0.415701
0.41792
0.420353
0.425457
0.439569
0.468013
0.517545
0.603714
0.441706
0.359063
0.515152
0.482826
0.453109
0.436739
0.432476
0.431572
0.429297
0.426719
0.425245
0.425573
0.427659
0.430521
0.432742
0.434087
0.43834
0.450396
0.473107
0.506005
0.365801
0.341945
0.465526
0.470506
0.453205
0.427313
0.412285
0.404592
0.399248
0.395758
0.394135
0.394135
0.395847
0.399291
0.404467
0.411879
0.426158
0.449873
0.470418
0.464393
0.344768
0.360527
0.436166
0.383315
0.381534
0.383064
0.383521
0.382142
0.380262
0.378847
0.378198
0.378328
0.379293
0.381001
0.383192
0.384896
0.38487
0.383215
0.381874
0.431303
0.360214
1.62463
1.98609
1.76696
1.06704
0.604417
0.452675
0.403276
0.387027
0.382051
0.381109
0.382407
0.386975
0.39885
0.428403
0.499627
0.675676
1.10121
1.64446
1.93584
1.6517
1.32308
1.57939
1.37308
0.811501
0.524003
0.427083
0.394058
0.382455
0.37849
0.377545
0.378416
0.381802
0.390601
0.412118
0.462662
0.579258
0.844358
1.26401
1.52344
1.36396
1.31568
1.59765
1.42568
0.842393
0.524481
0.422129
0.390424
0.380163
0.376691
0.375907
0.376748
0.379968
0.38808
0.407756
0.455339
0.572971
0.85792
1.28399
1.52184
1.37985
1.17643
1.52242
1.35321
0.79579
0.513881
0.418652
0.388545
0.378766
0.375465
0.374734
0.375595
0.378765
0.386863
0.406326
0.45236
0.5614
0.816504
1.23476
1.50027
1.34724
1.31395
1.52143
1.37596
0.827768
0.522972
0.420989
0.38873
0.378546
0.375309
0.374681
0.375542
0.37864
0.386576
0.406158
0.453284
0.562196
0.800211
1.19829
1.49656
1.3323
1.25678
1.49562
1.32905
0.794928
0.516516
0.4199
0.388231
0.378207
0.375112
0.374574
0.375499
0.378534
0.38619
0.405453
0.454378
0.569988
0.807984
1.19602
1.55057
1.35285
1.27223
1.51726
1.37062
0.842556
0.530615
0.423726
0.389142
0.378259
0.375033
0.374553
0.375532
0.378624
0.385903
0.403295
0.444407
0.552868
0.770834
1.17136
1.54387
1.34982
1.23368
1.52048
1.34748
0.822853
0.523855
0.422094
0.388629
0.378087
0.375007
0.374592
0.375648
0.378952
0.386368
0.403779
0.443767
0.54986
0.787236
1.16195
1.52321
1.34368
1.0825
1.54876
1.35258
0.825663
0.525484
0.422861
0.389125
0.378326
0.375073
0.374605
0.375617
0.378724
0.386705
0.403815
0.444811
0.540061
0.756012
1.17096
1.46176
1.33989
1.15321
1.55275
1.27927
0.802447
0.523251
0.423913
0.390113
0.378863
0.375253
0.374626
0.375594
0.378753
0.387044
0.408247
0.455317
0.565282
0.814267
1.20651
1.4651
1.34032
1.18027
1.58159
1.28487
0.740447
0.486331
0.407307
0.383537
0.376588
0.374763
0.374466
0.375489
0.378605
0.386855
0.40809
0.456923
0.567836
0.806215
1.18889
1.46136
1.32643
1.25476
1.60104
1.30951
0.749324
0.49432
0.411196
0.38516
0.377196
0.374865
0.374498
0.375447
0.37845
0.386478
0.407087
0.458731
0.5786
0.845646
1.23558
1.47786
1.31475
1.3183
1.52488
1.37578
0.823618
0.521704
0.420328
0.388134
0.378109
0.375078
0.374556
0.375425
0.378341
0.38638
0.408111
0.455368
0.570485
0.827368
1.22093
1.46968
1.27747
1.2514
1.50272
1.33865
0.788746
0.512321
0.418443
0.388037
0.378335
0.37524
0.37462
0.375426
0.378155
0.385301
0.402951
0.4449
0.543713
0.772274
1.15735
1.50129
1.18048
1.24546
1.48457
1.30497
0.782262
0.513377
0.418598
0.388502
0.378684
0.375389
0.374691
0.375495
0.378411
0.386232
0.405969
0.452039
0.558563
0.788188
1.1846
1.51501
1.25038
1.24402
1.4876
1.31046
0.81262
0.526192
0.421909
0.389293
0.378848
0.375417
0.374701
0.375514
0.378501
0.386417
0.403832
0.448162
0.562878
0.819443
1.23982
1.54689
1.36468
1.22088
1.57776
1.27453
0.743368
0.507022
0.416188
0.388222
0.378757
0.375408
0.374694
0.37555
0.3786
0.386976
0.406236
0.449687
0.551107
0.780407
1.196
1.47337
1.3156
1.07182
1.48094
1.3271
0.835254
0.532926
0.420878
0.38687
0.377708
0.375037
0.374517
0.375438
0.378364
0.385832
0.405551
0.457581
0.576617
0.845916
1.24539
1.49471
1.29232
1.11663
1.53432
1.31053
0.810241
0.528194
0.425833
0.388609
0.378434
0.375181
0.374549
0.375399
0.378409
0.386116
0.405196
0.453287
0.561061
0.800623
1.19028
1.51868
1.22238
1.14359
1.5192
1.26205
0.74731
0.48968
0.409067
0.385584
0.377319
0.375009
0.374528
0.375314
0.377923
0.384803
0.402594
0.441656
0.538083
0.769854
1.15872
1.50664
1.20027
1.23111
1.54881
1.30979
0.783242
0.51329
0.419933
0.389154
0.378903
0.375414
0.374634
0.375345
0.377958
0.38482
0.402261
0.447536
0.550593
0.791726
1.16042
1.51291
1.28159
1.24828
1.48537
1.30617
0.731719
0.485495
0.406791
0.383702
0.377414
0.37508
0.37451
0.375298
0.377976
0.384924
0.40207
0.44342
0.540999
0.783129
1.17743
1.46317
1.34121
1.25487
1.48733
1.34319
0.811898
0.518138
0.419633
0.387744
0.378037
0.375122
0.374517
0.375367
0.378185
0.385682
0.405138
0.452382
0.555982
0.804011
1.20567
1.46469
1.34508
1.24174
1.49186
1.32295
0.798979
0.518176
0.415179
0.38572
0.377189
0.374886
0.374494
0.375444
0.378302
0.385603
0.403695
0.44619
0.553606
0.783987
1.17645
1.45685
1.33829
1.23552
1.51003
1.33868
0.840608
0.535841
0.42552
0.38941
0.378268
0.375109
0.374615
0.375588
0.378699
0.386716
0.408214
0.451976
0.560041
0.808794
1.20449
1.46206
1.34088
1.13774
1.54512
1.31122
0.805544
0.526359
0.42356
0.388933
0.378132
0.375131
0.374591
0.375552
0.378386
0.385921
0.404987
0.452119
0.558618
0.793349
1.18279
1.45602
1.33062
1.10305
1.5188
1.25173
0.740415
0.487906
0.414302
0.38711
0.377285
0.374993
0.37456
0.375619
0.378613
0.386518
0.407751
0.452989
0.563831
0.821565
1.22103
1.46527
1.3255
1.16769
1.54816
1.27809
0.768818
0.501232
0.417117
0.388396
0.378227
0.375225
0.374584
0.375467
0.37842
0.385955
0.404791
0.45126
0.556013
0.798269
1.20373
1.47207
1.32286
1.20739
1.51151
1.2694
0.756118
0.486636
0.40799
0.384264
0.377178
0.374913
0.374512
0.375493
0.378758
0.386739
0.407451
0.450482
0.545616
0.758008
1.10189
1.42232
1.1949
1.1368
1.54655
1.25302
0.757393
0.498979
0.415877
0.387484
0.378512
0.37521
0.37457
0.375374
0.378271
0.38623
0.4072
0.456701
0.573641
0.839241
1.22899
1.47309
1.32189
1.24486
1.47682
1.31728
0.781316
0.496836
0.413593
0.385085
0.377046
0.374755
0.374425
0.375262
0.378033
0.38557
0.405824
0.453579
0.564832
0.821972
1.22001
1.46447
1.29694
1.23502
1.47211
1.2882
0.758779
0.50454
0.411407
0.384203
0.377093
0.374884
0.374466
0.375227
0.377807
0.384531
0.401601
0.444959
0.555908
0.775054
1.16333
1.49947
1.21938
1.23705
1.48237
1.30557
0.783439
0.512167
0.41743
0.386161
0.37778
0.375137
0.374576
0.375293
0.377974
0.384643
0.401455
0.442456
0.543717
0.803278
1.22162
1.53736
1.33901
1.21503
1.51067
1.27673
0.766831
0.513016
0.418581
0.386604
0.377732
0.375205
0.374658
0.375404
0.378129
0.385271
0.403177
0.445536
0.543303
0.754879
1.10194
1.41916
1.18412
1.13418
1.55316
1.27389
0.760132
0.513006
0.419121
0.388467
0.378479
0.375401
0.374745
0.375512
0.378469
0.385862
0.406029
0.454109
0.569509
0.834675
1.22804
1.46044
1.30653
1.27166
1.49805
1.35273
0.830793
0.528507
0.423124
0.387003
0.37765
0.374977
0.374551
0.375353
0.378067
0.385283
0.404627
0.450338
0.559549
0.816049
1.22522
1.44269
1.27055
1.25662
1.4877
1.33037
0.818585
0.526184
0.422988
0.387006
0.377536
0.374868
0.37454
0.375425
0.378285
0.384785
0.401198
0.44079
0.536748
0.771377
1.21983
1.52119
1.19869
1.23544
1.56028
1.34799
0.830473
0.533734
0.4264
0.389481
0.378539
0.375158
0.374623
0.375489
0.378341
0.385595
0.403726
0.4468
0.546673
0.764432
1.11268
1.43177
1.21655
1.03804
1.48694
1.27198
0.754237
0.495552
0.417906
0.385918
0.377138
0.374703
0.374506
0.375497
0.378653
0.386082
0.406554
0.455538
0.573486
0.844616
1.24151
1.47486
1.31752
1.09348
1.44969
1.28285
0.761672
0.500302
0.417741
0.388031
0.37828
0.375125
0.374625
0.375511
0.37829
0.385603
0.405198
0.451844
0.563859
0.825343
1.23347
1.45842
1.27552
1.12828
1.45326
1.27695
0.755498
0.495097
0.413734
0.385605
0.377291
0.374864
0.374602
0.375598
0.378598
0.385113
0.401606
0.442009
0.543709
0.808539
1.22822
1.51438
1.19655
1.22646
1.51199
1.32094
0.799668
0.517275
0.416149
0.386644
0.377808
0.375061
0.374669
0.375715
0.378614
0.3859
0.403754
0.445315
0.5425
0.7619
1.17947
1.45008
1.23407
1.11417
1.541
1.26461
0.730637
0.487023
0.408537
0.384439
0.376987
0.374766
0.374608
0.375713
0.379179
0.386813
0.407511
0.455009
0.56678
0.822037
1.21892
1.47136
1.34768
1.25794
1.50446
1.34884
0.81821
0.522552
0.420606
0.38843
0.378207
0.375136
0.374686
0.375691
0.378612
0.386572
0.407263
0.45534
0.56677
0.811726
1.2031
1.47148
1.34314
1.23078
1.52144
1.3283
0.801569
0.52136
0.420438
0.38872
0.378406
0.37519
0.374738
0.375674
0.378837
0.386286
0.406804
0.455565
0.573158
0.847514
1.25065
1.49158
1.34464
1.10744
1.5382
1.25684
0.729092
0.504902
0.415831
0.38858
0.378578
0.375385
0.374817
0.375723
0.378562
0.386036
0.405728
0.451666
0.559527
0.817514
1.22261
1.47339
1.31151
1.24546
1.50246
1.33653
0.806763
0.519459
0.41705
0.388641
0.378651
0.375398
0.374877
0.37583
0.37896
0.386049
0.404337
0.44785
0.548768
0.784702
1.14051
1.42179
1.15834
1.2086
1.52547
1.30562
0.783854
0.5175
0.422075
0.390262
0.379751
0.375959
0.374991
0.375831
0.378799
0.386931
0.402797
0.443006
0.537304
0.755175
1.17508
1.4458
1.24389
1.05322
1.56667
1.21059
0.701749
0.483364
0.406937
0.384543
0.377431
0.375101
0.374793
0.375803
0.378969
0.386665
0.40662
0.452333
0.559914
0.810524
1.21493
1.47172
1.35186
1.1803
1.56726
1.28859
0.764227
0.511797
0.417153
0.388738
0.378927
0.375532
0.374883
0.375874
0.379143
0.387561
0.407383
0.453809
0.559754
0.794116
1.18893
1.46762
1.34987
1.25899
1.51164
1.35897
0.831175
0.527218
0.41839
0.386356
0.378212
0.375307
0.374827
0.375811
0.379004
0.386975
0.408414
0.457045
0.568127
0.823615
1.2222
1.47798
1.35785
1.22062
1.5147
1.32944
0.816281
0.523881
0.422506
0.387459
0.378247
0.375311
0.374823
0.375739
0.378542
0.386338
0.406471
0.458882
0.56833
0.812257
1.20694
1.48112
1.35736
1.06376
1.54299
1.27309
0.798808
0.521322
0.421883
0.38924
0.378787
0.375456
0.374883
0.375777
0.378455
0.386038
0.405449
0.453369
0.575256
0.846743
1.2533
1.50571
1.36703
1.157
1.55855
1.29428
0.750235
0.494158
0.414112
0.388009
0.378669
0.375398
0.374837
0.375664
0.378493
0.386301
0.407475
0.45529
0.561807
0.804492
1.20254
1.48211
1.34401
1.23577
1.51755
1.38604
0.847477
0.533915
0.421131
0.387769
0.378005
0.375188
0.374811
0.37566
0.378379
0.385271
0.402186
0.443935
0.542854
0.762099
1.13265
1.43663
1.21686
1.14522
1.48363
1.36783
0.814325
0.518221
0.417928
0.386777
0.377603
0.375178
0.37486
0.375808
0.378622
0.385913
0.404356
0.452484
0.554201
0.786891
1.1819
1.46438
1.34605
1.09291
1.43946
1.23251
0.740622
0.487187
0.409209
0.384898
0.37711
0.375063
0.374817
0.375757
0.378649
0.38603
0.404179
0.448231
0.559585
0.809134
1.21271
1.47288
1.35383
1.21987
1.57551
1.30973
0.789146
0.506502
0.418497
0.389227
0.378601
0.37545
0.374822
0.375716
0.378717
0.386714
0.407352
0.453752
0.559899
0.791397
1.18435
1.46706
1.34934
1.22149
1.52525
1.29005
0.770408
0.491665
0.409278
0.38403
0.377221
0.375037
0.374671
0.375603
0.378552
0.386323
0.406018
0.456603
0.569413
0.82099
1.21511
1.47572
1.35529
1.15164
1.56579
1.28366
0.772477
0.505514
0.418279
0.387715
0.378255
0.375392
0.374827
0.3757
0.378532
0.386102
0.405259
0.453165
0.571839
0.813923
1.19981
1.47668
1.35126
1.24826
1.49797
1.35475
0.818263
0.509581
0.413523
0.385358
0.377007
0.374954
0.374633
0.375558
0.378487
0.385836
0.405452
0.455925
0.583724
0.856404
1.24827
1.49854
1.35528
1.21285
1.49623
1.35966
0.811239
0.522929
0.42003
0.388119
0.37796
0.375275
0.374699
0.375524
0.378054
0.384934
0.40296
0.449418
0.569067
0.838732
1.23464
1.49308
1.329
1.08654
1.44409
1.24211
0.730714
0.505191
0.415129
0.387687
0.377893
0.375082
0.374578
0.375404
0.378257
0.384518
0.401271
0.442376
0.541455
0.775107
1.15096
1.46327
1.27595
1.24812
1.4892
1.34744
0.819668
0.522548
0.416642
0.386141
0.377569
0.375015
0.374514
0.375348
0.377993
0.384848
0.402093
0.443783
0.542292
0.783215
1.18071
1.51497
1.17801
1.22012
1.51158
1.36498
0.811924
0.523361
0.421626
0.386958
0.377538
0.374932
0.374471
0.375413
0.378347
0.385577
0.404551
0.449811
0.542723
0.777325
1.17437
1.52003
1.22352
1.08874
1.44429
1.23652
0.723094
0.487383
0.413375
0.386287
0.3778
0.374901
0.374401
0.375381
0.378462
0.38607
0.402438
0.44517
0.555557
0.793559
1.16922
1.523
1.30349
1.25312
1.49143
1.34012
0.812537
0.520093
0.419762
0.386441
0.37713
0.374679
0.374311
0.375334
0.378385
0.385764
0.404876
0.449137
0.553237
0.789968
1.18856
1.47187
1.34915
1.22914
1.5361
1.36448
0.804238
0.520169
0.420514