/*--------------------------------*- C++ -*----------------------------------*\
  =========                 |
  \\      /  F ield         | OpenFOAM: The Open Source CFD Toolbox
   \\    /   O peration     | Website:  https://openfoam.org
    \\  /    A nd           | Version:  6
     \\/     M anipulation  |
\*---------------------------------------------------------------------------*/
FoamFile
{
    version     2.0;
    format      ascii;
    class       volScalarField;
    location    "2";
    object      k;
}
// * * * * * * * * * * * * * * * * * * * * * * * * * * * * * * * * * * * * * //

dimensions      [0 2 -2 0 0 0 0];

internalField   nonuniform List<scalar> 
130000
(
0.430084
0.432226
0.421057
0.406288
0.39383
0.384769
0.378644
0.374677
0.372191
0.370676
0.369791
0.369294
0.369052
0.368981
0.369053
0.369276
0.369665
0.370207
0.370778
0.37112
0.428162
0.430854
0.419832
0.405355
0.393173
0.384347
0.378387
0.374545
0.372137
0.370679
0.369821
0.369344
0.369104
0.369035
0.369095
0.369301
0.369654
0.370158
0.37069
0.371017
0.428457
0.430923
0.419812
0.405292
0.393091
0.38428
0.37833
0.374511
0.372113
0.370668
0.369805
0.369332
0.369086
0.369019
0.369074
0.369274
0.369604
0.370087
0.370598
0.370942
0.428628
0.431004
0.419804
0.405243
0.393025
0.384219
0.378274
0.374466
0.372071
0.370634
0.369769
0.369301
0.369051
0.368987
0.369038
0.369237
0.369559
0.37004
0.370546
0.370895
0.428638
0.430979
0.419706
0.405137
0.392936
0.384152
0.378219
0.374427
0.372037
0.37061
0.369745
0.369281
0.369028
0.368967
0.369013
0.369215
0.369534
0.370019
0.370522
0.370878
0.428687
0.430982
0.419645
0.405028
0.392841
0.38408
0.378164
0.374389
0.372007
0.370589
0.369727
0.369268
0.369014
0.368954
0.368997
0.369201
0.369518
0.370008
0.370513
0.370874
0.428821
0.431004
0.4196
0.404969
0.392773
0.384022
0.378117
0.374356
0.371982
0.370574
0.369714
0.369262
0.369007
0.368951
0.368992
0.3692
0.369515
0.370009
0.370513
0.37088
0.428924
0.431008
0.41955
0.404926
0.392716
0.383971
0.378076
0.374328
0.371962
0.370563
0.369706
0.369259
0.369004
0.36895
0.368989
0.369197
0.369508
0.370003
0.370502
0.37087
0.428925
0.430943
0.419446
0.404811
0.392617
0.383896
0.378025
0.374296
0.371942
0.370553
0.369701
0.369258
0.369004
0.368953
0.368991
0.369201
0.369511
0.370007
0.370502
0.370868
0.428922
0.430887
0.419303
0.404641
0.392466
0.383797
0.377961
0.374256
0.371917
0.370538
0.369692
0.369255
0.369002
0.368953
0.368991
0.369203
0.369512
0.370007
0.370497
0.370859
0.428962
0.430892
0.419266
0.404563
0.392374
0.383735
0.377918
0.374228
0.371899
0.370528
0.369686
0.369254
0.369003
0.368958
0.368996
0.369212
0.369521
0.370019
0.370507
0.37087
0.429036
0.430926
0.419288
0.40458
0.39238
0.383723
0.3779
0.374213
0.371887
0.370522
0.369682
0.369254
0.369004
0.368961
0.369001
0.369219
0.369528
0.370029
0.370517
0.370878
0.429125
0.430964
0.41926
0.404541
0.39238
0.383713
0.377889
0.374204
0.371881
0.37052
0.369683
0.369258
0.36901
0.36897
0.369011
0.369233
0.369544
0.370049
0.370537
0.3709
0.429323
0.431064
0.419258
0.404522
0.392359
0.38369
0.377869
0.374189
0.371871
0.370515
0.369682
0.369261
0.369015
0.368978
0.36902
0.369245
0.369558
0.370069
0.37056
0.370924
0.429467
0.431136
0.41929
0.404539
0.392339
0.383662
0.377844
0.374171
0.371861
0.370513
0.369686
0.36927
0.369028
0.368994
0.369038
0.369265
0.369579
0.370091
0.370585
0.370953
0.429536
0.431159
0.419269
0.404473
0.392269
0.383602
0.377801
0.374145
0.37185
0.370514
0.369697
0.36929
0.369053
0.369022
0.369068
0.369294
0.369606
0.370113
0.370599
0.370957
0.42957
0.43116
0.419186
0.404358
0.392163
0.38352
0.377748
0.374115
0.37184
0.370516
0.369709
0.369306
0.369073
0.369041
0.369086
0.369302
0.369612
0.370115
0.3706
0.370947
0.42967
0.431247
0.419216
0.404346
0.392135
0.383495
0.377732
0.374101
0.37183
0.370504
0.369698
0.369291
0.369058
0.369023
0.369067
0.369281
0.369593
0.370097
0.370586
0.370937
0.429933
0.431476
0.419336
0.404389
0.392142
0.383487
0.377729
0.374092
0.371816
0.370481
0.369673
0.369261
0.36903
0.368993
0.369045
0.369266
0.369586
0.37009
0.370585
0.370932
0.430135
0.431665
0.419425
0.404415
0.392143
0.383475
0.377725
0.374086
0.371811
0.370473
0.369667
0.369253
0.369025
0.368987
0.369043
0.369265
0.369589
0.370093
0.370592
0.370938
0.430316
0.431888
0.41962
0.40457
0.392257
0.383544
0.377759
0.374097
0.371815
0.370469
0.369664
0.369246
0.369021
0.368979
0.369039
0.369257
0.369587
0.370086
0.37059
0.370927
0.430531
0.432125
0.419852
0.40476
0.392401
0.383633
0.377803
0.374114
0.371824
0.37047
0.369666
0.369245
0.369022
0.368979
0.369041
0.369259
0.369591
0.370091
0.3706
0.370936
0.430877
0.43243
0.420056
0.40488
0.392471
0.383665
0.377818
0.374114
0.371822
0.370461
0.36966
0.369234
0.369016
0.368967
0.369035
0.369247
0.369586
0.37008
0.370596
0.370924
0.431179
0.432697
0.420232
0.404978
0.392523
0.383687
0.377828
0.374113
0.371821
0.370456
0.369658
0.36923
0.369015
0.368964
0.369036
0.369247
0.369591
0.370086
0.370608
0.370934
0.431403
0.432917
0.420376
0.405054
0.392561
0.383697
0.377828
0.374103
0.371812
0.370442
0.369649
0.369217
0.369008
0.368952
0.36903
0.369236
0.369586
0.370076
0.370606
0.370923
0.431672
0.433148
0.420533
0.40514
0.392606
0.383712
0.377833
0.374099
0.371809
0.370437
0.36965
0.369218
0.369015
0.36896
0.369042
0.369249
0.369603
0.370094
0.370627
0.370941
0.43214
0.433528
0.420767
0.405264
0.392665
0.383731
0.377834
0.374088
0.371799
0.370425
0.369644
0.369212
0.369014
0.368956
0.369043
0.369247
0.369607
0.370094
0.370634
0.370939
0.432592
0.433922
0.42103
0.405417
0.392746
0.383767
0.377845
0.374088
0.371801
0.370429
0.369653
0.369221
0.369027
0.368969
0.36906
0.369265
0.369631
0.370122
0.370664
0.370964
0.433037
0.434322
0.421304
0.405583
0.392838
0.383813
0.377865
0.374094
0.371802
0.370425
0.369648
0.369214
0.369021
0.368962
0.369057
0.369263
0.369635
0.370127
0.370675
0.37097
0.43351
0.434741
0.421597
0.405767
0.392948
0.383878
0.377908
0.374118
0.371811
0.370422
0.369638
0.369198
0.369004
0.368945
0.369042
0.369252
0.369631
0.370131
0.370689
0.370988
0.433983
0.435154
0.421882
0.405945
0.393055
0.383939
0.377945
0.37414
0.371824
0.370429
0.369643
0.369201
0.369008
0.368949
0.36905
0.369262
0.369647
0.37015
0.370713
0.371009
0.434469
0.435574
0.422171
0.406125
0.393163
0.384002
0.377982
0.374162
0.37184
0.370442
0.369655
0.369213
0.369021
0.368963
0.369067
0.369283
0.369674
0.370186
0.370747
0.371039
0.43497
0.436021
0.422477
0.406316
0.393275
0.384066
0.378019
0.374183
0.371855
0.370455
0.369668
0.369227
0.369036
0.36898
0.369087
0.369306
0.3697
0.370214
0.370776
0.371065
0.435493
0.436493
0.422803
0.406518
0.393394
0.384134
0.378057
0.374204
0.371873
0.370472
0.369684
0.369243
0.369054
0.369001
0.369113
0.369339
0.369732
0.370236
0.370802
0.37109
0.436032
0.436976
0.423137
0.406729
0.393518
0.384207
0.3781
0.374233
0.371893
0.370491
0.369701
0.36926
0.369071
0.369022
0.369138
0.369366
0.369754
0.37026
0.370829
0.371116
0.436593
0.437475
0.423483
0.406946
0.393647
0.384281
0.378143
0.374262
0.371911
0.370508
0.369719
0.369282
0.369093
0.369041
0.369152
0.36937
0.369757
0.370275
0.370849
0.371138
0.43719
0.438021
0.423861
0.407185
0.393788
0.384363
0.378188
0.374288
0.371923
0.370513
0.369722
0.369284
0.369094
0.369042
0.369148
0.369366
0.369767
0.370294
0.370874
0.371163
0.437821
0.438601
0.424268
0.407444
0.393942
0.384451
0.378236
0.374313
0.371932
0.370509
0.369709
0.369268
0.369075
0.369024
0.369135
0.369368
0.369777
0.370312
0.370897
0.371186
0.438483
0.439204
0.424694
0.407716
0.394106
0.384548
0.378291
0.374344
0.371949
0.370519
0.369713
0.369271
0.369078
0.369029
0.369143
0.369381
0.369795
0.370338
0.370927
0.371216
0.439176
0.43983
0.425137
0.408001
0.394277
0.384648
0.378348
0.374377
0.371968
0.370531
0.369721
0.369279
0.369084
0.369037
0.369152
0.369395
0.369813
0.370362
0.370956
0.371244
0.439909
0.440507
0.425615
0.408309
0.394464
0.384759
0.378412
0.374416
0.371991
0.370547
0.369733
0.369289
0.369094
0.369049
0.369166
0.369414
0.369837
0.370393
0.370991
0.371279
0.440686
0.441221
0.426124
0.408638
0.394665
0.384878
0.378481
0.374457
0.372015
0.370564
0.369744
0.369301
0.369104
0.36906
0.36918
0.369432
0.36986
0.370424
0.371026
0.371313
0.441508
0.441969
0.426658
0.408986
0.394878
0.385007
0.378557
0.374504
0.372045
0.370585
0.36976
0.369315
0.369118
0.369076
0.369198
0.369455
0.369889
0.370461
0.371069
0.371356
0.442385
0.442761
0.427225
0.409356
0.395106
0.385144
0.378638
0.374553
0.372074
0.370606
0.369775
0.369329
0.369131
0.369091
0.369215
0.369478
0.369918
0.370498
0.371112
0.371398
0.443321
0.443628
0.427847
0.409763
0.395358
0.385297
0.378729
0.374609
0.37211
0.370631
0.369794
0.369347
0.369148
0.369111
0.369237
0.369507
0.369953
0.370543
0.371163
0.371449
0.444326
0.444563
0.428524
0.410209
0.395634
0.385465
0.37883
0.374671
0.372149
0.370659
0.369815
0.369366
0.369166
0.369131
0.36926
0.369535
0.369989
0.370588
0.371214
0.371499
0.445393
0.445548
0.429242
0.410686
0.395933
0.385649
0.378941
0.374741
0.372194
0.370691
0.36984
0.369389
0.369188
0.369155
0.369288
0.36957
0.370031
0.370641
0.371275
0.371559
0.446516
0.446579
0.429996
0.411186
0.396248
0.385843
0.37906
0.374815
0.372242
0.370726
0.369867
0.369413
0.369211
0.36918
0.369316
0.369605
0.370075
0.370696
0.371337
0.37162
0.447694
0.447675
0.430799
0.411723
0.396588
0.386054
0.37919
0.374899
0.372297
0.370766
0.369898
0.369442
0.369239
0.369211
0.369351
0.369647
0.370126
0.370759
0.371409
0.371692
0.448914
0.448828
0.431658
0.412302
0.396958
0.386285
0.379334
0.37499
0.372358
0.37081
0.369933
0.369473
0.369269
0.369243
0.369387
0.369691
0.37018
0.370825
0.371484
0.371765
0.450289
0.450112
0.432611
0.412945
0.39737
0.386543
0.379495
0.375094
0.372428
0.370861
0.369974
0.36951
0.369305
0.369281
0.36943
0.369743
0.370243
0.370901
0.371571
0.371851
0.451861
0.451544
0.433667
0.413654
0.397823
0.386827
0.379672
0.375207
0.372504
0.370917
0.370018
0.36955
0.369344
0.369323
0.369476
0.369798
0.370309
0.370982
0.371662
0.371941
0.453478
0.453058
0.434793
0.414416
0.398314
0.387136
0.379867
0.375334
0.37259
0.370981
0.37007
0.369596
0.369389
0.369371
0.36953
0.369861
0.370385
0.371074
0.371766
0.372043
0.455192
0.454665
0.435998
0.415236
0.398844
0.387472
0.380081
0.375473
0.372686
0.371052
0.370128
0.369649
0.36944
0.369424
0.369589
0.369931
0.370468
0.371173
0.371878
0.372153
0.457022
0.45638
0.437288
0.416118
0.399417
0.387838
0.380315
0.375628
0.372794
0.371133
0.370195
0.369709
0.369499
0.369485
0.369657
0.37001
0.370562
0.371285
0.372004
0.372276
0.458982
0.458209
0.438671
0.417066
0.400036
0.388233
0.38057
0.375797
0.372912
0.371223
0.370269
0.369776
0.369565
0.369554
0.369733
0.370097
0.370665
0.371407
0.372141
0.372412
0.461085
0.460185
0.440164
0.418092
0.400708
0.388666
0.380851
0.375985
0.373046
0.371325
0.370355
0.369854
0.369641
0.369633
0.36982
0.370197
0.370782
0.371545
0.372295
0.372563
0.463348
0.462303
0.441773
0.419201
0.401438
0.389138
0.381159
0.376193
0.373195
0.37144
0.370451
0.369942
0.369727
0.369723
0.369918
0.370308
0.370913
0.371698
0.372466
0.372731
0.465776
0.464574
0.443502
0.420399
0.40223
0.389652
0.381498
0.376424
0.373362
0.37157
0.370562
0.370043
0.369827
0.369826
0.37003
0.370434
0.37106
0.371868
0.372656
0.372917
0.468399
0.46702
0.44537
0.421697
0.403092
0.390216
0.381872
0.37668
0.37355
0.371718
0.370688
0.370159
0.36994
0.369944
0.370158
0.370578
0.371225
0.37206
0.372868
0.373126
0.471233
0.469683
0.447405
0.423115
0.404035
0.390836
0.382285
0.376967
0.373761
0.371886
0.370833
0.370292
0.370071
0.370078
0.370303
0.37074
0.371412
0.372274
0.373105
0.373359
0.474307
0.472561
0.449617
0.424662
0.405071
0.39152
0.382745
0.377288
0.374001
0.372078
0.370999
0.370446
0.370222
0.370233
0.37047
0.370926
0.371624
0.372518
0.373373
0.373623
0.477627
0.475667
0.45201
0.426343
0.406202
0.392272
0.383255
0.377648
0.374272
0.372296
0.371189
0.370622
0.370396
0.370411
0.370661
0.371136
0.371864
0.37279
0.373672
0.373916
0.481233
0.479026
0.454606
0.428174
0.40744
0.393101
0.383822
0.378052
0.37458
0.372547
0.37141
0.370827
0.370598
0.370619
0.370882
0.37138
0.372138
0.373101
0.374013
0.374251
0.485146
0.482686
0.457436
0.430177
0.408799
0.394017
0.384453
0.378506
0.374929
0.372834
0.371663
0.371063
0.370831
0.370856
0.371136
0.371656
0.37245
0.373451
0.374395
0.374625
0.489418
0.486666
0.460528
0.432373
0.410298
0.395033
0.385159
0.37902
0.375328
0.373165
0.371958
0.371339
0.371103
0.371135
0.37143
0.371978
0.372809
0.373855
0.374832
0.375056
0.494071
0.490999
0.4639
0.434779
0.41195
0.396161
0.38595
0.3796
0.375783
0.373546
0.372298
0.371659
0.371418
0.371456
0.37177
0.372346
0.373219
0.37431
0.375326
0.375539
0.499176
0.495737
0.467601
0.437432
0.413782
0.397421
0.386842
0.380262
0.376308
0.373989
0.372697
0.372035
0.371789
0.371834
0.372168
0.372776
0.373694
0.374839
0.375895
0.3761
0.504777
0.500953
0.471679
0.440366
0.415818
0.398832
0.387848
0.381015
0.376911
0.374502
0.37316
0.372472
0.372221
0.372273
0.372629
0.373271
0.374239
0.37544
0.376541
0.376734
0.510956
0.506688
0.476185
0.443625
0.418095
0.400422
0.388994
0.381883
0.377612
0.375104
0.373707
0.372991
0.372733
0.372793
0.373173
0.373853
0.374876
0.376141
0.377292
0.377472
0.517762
0.513002
0.481158
0.447241
0.420637
0.402213
0.390297
0.382879
0.378424
0.375806
0.374349
0.373599
0.373334
0.373402
0.373808
0.374529
0.375614
0.376947
0.378152
0.378315
0.525307
0.519977
0.486674
0.451272
0.423493
0.404242
0.391789
0.384034
0.379376
0.376636
0.37511
0.374325
0.37405
0.374128
0.374562
0.37533
0.376481
0.377893
0.379156
0.379304
0.533677
0.527722
0.49281
0.455782
0.426708
0.406548
0.393501
0.385372
0.380489
0.377614
0.376012
0.375186
0.3749
0.374985
0.375451
0.376268
0.377494
0.37899
0.380318
0.380443
0.543021
0.53634
0.499668
0.460853
0.430354
0.409187
0.395483
0.38694
0.381807
0.37878
0.377092
0.37622
0.37592
0.376016
0.376513
0.377388
0.378695
0.380286
0.381686
0.381787
0.553463
0.545964
0.507351
0.466571
0.434499
0.412219
0.397784
0.38878
0.383367
0.380171
0.378386
0.37746
0.377143
0.377246
0.37778
0.378714
0.380112
0.381806
0.383284
0.383355
0.565221
0.556774
0.516019
0.473066
0.439249
0.41573
0.40048
0.390961
0.385234
0.381848
0.379953
0.378965
0.378627
0.378738
0.379309
0.38031
0.381806
0.383617
0.385179
0.385215
0.578492
0.56898
0.525839
0.480477
0.444717
0.419815
0.403653
0.393556
0.387476
0.383875
0.381853
0.380793
0.380427
0.380543
0.381152
0.382223
0.383827
0.385763
0.387417
0.387408
0.593566
0.582819
0.537031
0.488989
0.451061
0.424611
0.407424
0.396676
0.390196
0.38635
0.384184
0.383038
0.382636
0.382754
0.383399
0.384546
0.386266
0.388342
0.390094
0.390033
0.610748
0.598585
0.549843
0.498815
0.458463
0.430273
0.41193
0.400446
0.393512
0.389387
0.387053
0.385804
0.385355
0.385464
0.386144
0.387367
0.389213
0.391437
0.393298
0.393175
0.630485
0.616676
0.564625
0.510253
0.467176
0.437023
0.417373
0.405052
0.397599
0.393154
0.390623
0.389251
0.388736
0.388828
0.389534
0.390835
0.392813
0.395206
0.39719
0.397005
0.653265
0.637569
0.581793
0.523663
0.477511
0.445137
0.423999
0.410725
0.402678
0.397861
0.395098
0.393574
0.392971
0.393025
0.393748
0.395123
0.397246
0.39983
0.401963
0.401698
0.679765
0.661881
0.601905
0.539533
0.489899
0.454999
0.432164
0.417797
0.409065
0.403817
0.400779
0.399067
0.398344
0.398337
0.399061
0.400513
0.402798
0.405595
0.407862
0.40752
0.710797
0.690394
0.625663
0.55849
0.504897
0.467114
0.442335
0.426712
0.417189
0.411438
0.408073
0.40613
0.405241
0.405137
0.405861
0.407399
0.409853
0.412842
0.415267
0.414802
0.747471
0.724157
0.654027
0.581389
0.523278
0.482191
0.455179
0.438111
0.427674
0.421337
0.417588
0.415378
0.414294
0.414068
0.414765
0.416367
0.418963
0.422161
0.424712
0.424029
0.791146
0.7645
0.688223
0.609353
0.54607
0.501192
0.471611
0.452881
0.441393
0.434382
0.430186
0.427663
0.426359
0.425988
0.426617
0.428222
0.430908
0.434247
0.436859
0.435877
0.84365
0.813201
0.729921
0.643918
0.5747
0.525465
0.492935
0.472304
0.459623
0.451855
0.447165
0.444307
0.442774
0.442221
0.442679
0.444178
0.446857
0.450257
0.452848
0.451423
0.907342
0.872591
0.781319
0.687138
0.6111
0.556861
0.520956
0.498172
0.484171
0.475598
0.470418
0.467258
0.465525
0.464712
0.464837
0.466072
0.468627
0.471966
0.474386
0.472273
0.985336
0.945748
0.84534
0.741754
0.657865
0.597882
0.558139
0.532958
0.517552
0.508207
0.502659
0.499371
0.497491
0.49638
0.496044
0.496771
0.499061
0.502164
0.504165
0.500977
1.08159
1.03661
0.925725
0.811287
0.718339
0.651765
0.607674
0.579871
0.563061
0.55313
0.547534
0.544343
0.54243
0.541087
0.540293
0.540503
0.542423
0.5451
0.546346
0.541499
1.20123
1.15023
1.02722
0.900153
0.796657
0.722445
0.673396
0.64275
0.624634
0.614466
0.609297
0.60668
0.605242
0.604232
0.603411
0.603355
0.605042
0.607206
0.60732
0.600036
1.35074
1.29293
1.15562
1.01355
0.897477
0.814149
0.759261
0.72541
0.706124
0.696259
0.692133
0.690968
0.691351
0.692123
0.692716
0.693603
0.695882
0.697769
0.696522
0.685897
1.53824
1.47241
1.31759
1.15701
1.02525
0.930451
0.868136
0.830273
0.809705
0.800387
0.798135
0.800247
0.804973
0.810446
0.816207
0.8216
0.826204
0.828952
0.82685
0.812319
1.77348
1.69749
1.52005
1.33528
1.18255
1.07203
0.99919
0.955507
0.933034
0.924761
0.926176
0.934157
0.946024
0.960217
0.975589
0.990693
1.00405
1.01312
1.01365
0.996391
2.06745
1.97704
1.7682
1.54943
1.36646
1.23237
1.14315
1.08999
1.06366
1.05656
1.06342
1.08044
1.10513
1.13526
1.1689
1.2035
1.23586
1.26122
1.27273
1.25758
2.42975
2.31503
2.0588
1.78905
1.55994
1.38911
1.27364
1.20429
1.17027
1.16389
1.17923
1.21133
1.2573
1.31428
1.3795
1.44914
1.51777
1.57698
1.61496
1.6121
2.85871
2.70065
2.37206
2.02394
1.72253
1.49509
1.34014
1.24668
1.20153
1.19607
1.22343
1.27725
1.35423
1.45101
1.56445
1.69043
1.82086
1.94151
2.03147
2.05827
3.31695
3.08268
2.63964
2.17724
1.78345
1.4926
1.30048
1.18893
1.13746
1.1332
1.16801
1.23754
1.34154
1.48052
1.65273
1.85345
2.07228
2.28806
2.46507
2.54521
3.63481
3.30976
2.74636
2.15409
1.65062
1.29885
1.08294
0.965127
0.914608
0.914195
0.954805
1.03424
1.15528
1.32315
1.54247
1.81325
2.12539
2.45031
2.73149
2.87743
3.70386
3.18733
2.39517
1.67187
1.16251
0.8635
0.70371
0.625891
0.5976
0.603423
0.637793
0.701563
0.801391
0.948959
1.16047
1.45234
1.83003
2.26821
2.69678
2.96823
3.08031
2.02732
1.15658
0.67445
0.476161
0.405709
0.383721
0.379149
0.381348
0.387372
0.397975
0.41564
0.445555
0.497386
0.58938
0.754173
1.04613
1.54188
2.22594
2.90227
0.376807
0.376503
0.374906
0.373168
0.371716
0.37067
0.369969
0.369529
0.369271
0.369145
0.369119
0.369189
0.369365
0.369684
0.370202
0.370996
0.372139
0.37362
0.375086
0.37579
0.376526
0.376204
0.374662
0.372964
0.371554
0.370535
0.369856
0.369428
0.369178
0.369053
0.369026
0.369087
0.36925
0.369547
0.370034
0.370782
0.371863
0.373269
0.374679
0.375358
0.376337
0.375993
0.374474
0.372801
0.371419
0.370418
0.369756
0.369333
0.36909
0.368964
0.368936
0.36899
0.369146
0.369428
0.369894
0.370611
0.371654
0.373016
0.374399
0.375109
0.376179
0.375849
0.374344
0.372682
0.371317
0.370326
0.369674
0.369256
0.369018
0.368892
0.368865
0.368917
0.36907
0.369345
0.369804
0.370509
0.371537
0.372881
0.374246
0.374928
0.376113
0.37578
0.374279
0.37262
0.371259
0.370264
0.369612
0.36919
0.368953
0.368825
0.368799
0.368849
0.369005
0.36928
0.369742
0.370449
0.371485
0.372828
0.37419
0.374864
0.376069
0.375731
0.374231
0.372567
0.371203
0.370195
0.36954
0.369115
0.368877
0.368747
0.368723
0.368774
0.368932
0.369209
0.369677
0.370389
0.371436
0.372787
0.374161
0.374846
0.376036
0.375694
0.374193
0.372522
0.371161
0.370163
0.369515
0.369091
0.368857
0.368727
0.368705
0.368755
0.368915
0.369192
0.369658
0.370367
0.371403
0.372754
0.374138
0.374832
0.375975
0.375646
0.374156
0.372493
0.371141
0.370146
0.369504
0.369083
0.368853
0.368724
0.368704
0.368755
0.368916
0.369191
0.369657
0.370362
0.371393
0.372735
0.374101
0.374782
0.375982
0.375644
0.374152
0.37249
0.371144
0.370156
0.369521
0.369104
0.368878
0.368752
0.368734
0.368785
0.368946
0.369221
0.369685
0.370389
0.371417
0.372755
0.374116
0.374794
0.375985
0.375639
0.374144
0.372478
0.371132
0.370142
0.369507
0.36909
0.368865
0.368739
0.368721
0.368773
0.368936
0.369212
0.36968
0.370386
0.371421
0.372761
0.374123
0.3748
0.376
0.375638
0.374137
0.372462
0.37111
0.370113
0.369474
0.369052
0.368825
0.368697
0.368681
0.368733
0.368899
0.369181
0.369655
0.370374
0.371427
0.372782
0.374158
0.374844
0.37604
0.375656
0.374147
0.372467
0.371113
0.370113
0.369474
0.369051
0.368825
0.368696
0.36868
0.368733
0.368899
0.369181
0.369657
0.370377
0.371432
0.372792
0.374177
0.374877
0.376064
0.375677
0.374168
0.372486
0.371134
0.370133
0.369495
0.369071
0.368846
0.368717
0.368701
0.368753
0.36892
0.369202
0.369677
0.370394
0.371439
0.372798
0.374184
0.374892
0.376056
0.375683
0.374181
0.372501
0.371151
0.370151
0.369515
0.369091
0.368866
0.368737
0.368721
0.368774
0.36894
0.369222
0.369696
0.370412
0.371455
0.372811
0.374191
0.374885
0.376068
0.375704
0.374205
0.372525
0.371178
0.370178
0.369544
0.36912
0.368897
0.368768
0.368753
0.368805
0.368973
0.369256
0.369731
0.370448
0.37149
0.372844
0.374214
0.374885
0.376111
0.375732
0.374224
0.372542
0.371196
0.370197
0.369565
0.369143
0.368922
0.368794
0.36878
0.368834
0.369003
0.369288
0.369765
0.370484
0.371528
0.372884
0.374252
0.374915
0.376162
0.375764
0.374248
0.372565
0.37122
0.370224
0.369595
0.369176
0.368957
0.368831
0.368817
0.368872
0.369042
0.369328
0.369806
0.370526
0.371566
0.372915
0.374273
0.374929
0.376175
0.375773
0.374254
0.372573
0.371234
0.370246
0.369623
0.369208
0.368991
0.368867
0.368853
0.368907
0.369074
0.369357
0.369828
0.370541
0.371568
0.372907
0.374252
0.374897
0.376203
0.375782
0.374251
0.372567
0.371225
0.370237
0.369613
0.369198
0.368981
0.368856
0.368842
0.368894
0.369061
0.369341
0.369813
0.370521
0.371549
0.372892
0.374248
0.374892
0.376211
0.375774
0.37423
0.372539
0.371192
0.3702
0.369572
0.369156
0.368936
0.368811
0.368796
0.368851
0.369019
0.369305
0.369781
0.370501
0.371544
0.372897
0.374258
0.374902
0.37617
0.375742
0.374204
0.372518
0.371171
0.370183
0.369554
0.369139
0.36892
0.368796
0.368782
0.368837
0.369007
0.369292
0.369773
0.370494
0.371543
0.372896
0.374262
0.374901
0.376151
0.375737
0.374196
0.372513
0.371164
0.370178
0.369549
0.369136
0.368917
0.368794
0.368779
0.368836
0.369006
0.369295
0.369776
0.370501
0.371553
0.372912
0.37428
0.37492
0.376173
0.37575
0.374196
0.372508
0.371154
0.370168
0.369538
0.369126
0.368907
0.368784
0.36877
0.368826
0.368998
0.369285
0.36977
0.370493
0.37155
0.372908
0.374282
0.374916
0.3762
0.375768
0.374202
0.37251
0.371153
0.370168
0.369537
0.369127
0.368907
0.368786
0.368771
0.368828
0.369
0.36929
0.369775
0.370503
0.371563
0.372927
0.374305
0.37494
0.37621
0.375775
0.374198
0.372505
0.371144
0.370161
0.36953
0.369122
0.368903
0.368782
0.368768
0.368824
0.368997
0.369284
0.369773
0.370498
0.371564
0.372926
0.37431
0.374937
0.376241
0.3758
0.374213
0.372518
0.371155
0.370177
0.369548
0.369145
0.368928
0.368809
0.368794
0.36885
0.369022
0.369309
0.369796
0.370523
0.37159
0.372957
0.374345
0.374972
0.376267
0.375823
0.374224
0.372525
0.371159
0.370183
0.369555
0.369156
0.36894
0.368822
0.368807
0.368862
0.369033
0.369316
0.369805
0.370532
0.371605
0.372972
0.374365
0.374984
0.376318
0.375867
0.374257
0.372554
0.371181
0.370205
0.369575
0.369177
0.36896
0.368844
0.36883
0.368887
0.36906
0.369348
0.369842
0.370576
0.371653
0.373023
0.374416
0.375032
0.376357
0.375901
0.374278
0.372566
0.371184
0.370202
0.369565
0.369163
0.368944
0.368827
0.368813
0.368873
0.369051
0.369345
0.369847
0.370589
0.371681
0.373053
0.374452
0.375063
0.376418
0.375951
0.374312
0.372584
0.371184
0.370191
0.369544
0.369137
0.368913
0.368796
0.368781
0.368844
0.369026
0.369328
0.369839
0.370594
0.371702
0.373093
0.374504
0.375116
0.376471
0.375998
0.374348
0.372609
0.371201
0.370205
0.369553
0.369146
0.368919
0.368803
0.368788
0.368853
0.369036
0.369343
0.369858
0.370619
0.37173
0.373136
0.374554
0.375164
0.376535
0.376052
0.374387
0.372643
0.37123
0.370232
0.369577
0.36917
0.368942
0.368828
0.368812
0.36888
0.369064
0.369375
0.369895
0.370667
0.371787
0.373195
0.374616
0.375224
0.376593
0.376102
0.374426
0.372682
0.371262
0.370263
0.369607
0.369201
0.368972
0.368859
0.368843
0.368913
0.369098
0.369412
0.369933
0.370709
0.37183
0.373246
0.374673
0.37528
0.376654
0.376154
0.374466
0.372717
0.371301
0.370309
0.369654
0.36925
0.369021
0.368908
0.368892
0.368964
0.369151
0.369469
0.369987
0.370757
0.371869
0.373296
0.374729
0.375337
0.376709
0.3762
0.374499
0.372741
0.371325
0.370341
0.369692
0.369294
0.369066
0.368951
0.368935
0.369005
0.369191
0.369505
0.370013
0.370784
0.371904
0.373344
0.374785
0.375394
0.376764
0.376244
0.374528
0.372758
0.371327
0.370339
0.36969
0.369304
0.36908
0.368968
0.36895
0.369015
0.369187
0.369496
0.370005
0.370791
0.371931
0.373388
0.374838
0.375448
0.376819
0.376288
0.374557
0.372774
0.371329
0.370324
0.369666
0.369279
0.369053
0.368945
0.368925
0.368993
0.369161
0.369481
0.370011
0.370813
0.371967
0.373437
0.374896
0.375507
0.376876
0.376334
0.374588
0.372794
0.371339
0.370325
0.369654
0.369249
0.369014
0.368906
0.368887
0.368966
0.369154
0.369487
0.370026
0.370839
0.372003
0.373487
0.374955
0.375566
0.376936
0.376384
0.374624
0.372818
0.371354
0.370335
0.36966
0.369252
0.369016
0.368908
0.36889
0.368972
0.369164
0.369503
0.370049
0.370872
0.372047
0.373544
0.375021
0.375633
0.376998
0.376436
0.374661
0.372844
0.371372
0.370348
0.36967
0.369261
0.369023
0.368916
0.368898
0.368983
0.369177
0.369522
0.370073
0.370905
0.372091
0.373601
0.375089
0.375701
0.377064
0.376492
0.374703
0.372875
0.371394
0.370366
0.369684
0.369274
0.369035
0.368929
0.368912
0.368998
0.369195
0.369544
0.370102
0.370944
0.372141
0.373667
0.375166
0.37578
0.377134
0.376553
0.374749
0.372909
0.371418
0.370385
0.369699
0.369288
0.369048
0.368943
0.368925
0.369014
0.369213
0.369568
0.370132
0.370984
0.372193
0.373735
0.375245
0.37586
0.37722
0.376628
0.374806
0.372951
0.37145
0.37041
0.369719
0.369306
0.369065
0.36896
0.368943
0.369034
0.369236
0.369596
0.370168
0.371031
0.372254
0.373812
0.375336
0.375952
0.377322
0.376715
0.374872
0.372999
0.371484
0.370437
0.369741
0.369326
0.369083
0.368979
0.368962
0.369056
0.36926
0.369626
0.370205
0.371079
0.372316
0.373892
0.375429
0.376047
0.377426
0.376806
0.374943
0.373052
0.371525
0.370469
0.369768
0.369351
0.369107
0.369002
0.368986
0.369082
0.36929
0.369661
0.370248
0.371135
0.372387
0.373982
0.375535
0.376154
0.377535
0.376903
0.375019
0.37311
0.371569
0.370504
0.369798
0.369378
0.369132
0.369027
0.369012
0.36911
0.369321
0.369699
0.370294
0.371194
0.372462
0.374077
0.375646
0.376267
0.377656
0.377011
0.375104
0.373175
0.37162
0.370546
0.369834
0.36941
0.369163
0.369058
0.369043
0.369144
0.369359
0.369743
0.370348
0.371261
0.372548
0.374184
0.375771
0.376394
0.377787
0.377127
0.375198
0.373247
0.371676
0.370592
0.369873
0.369446
0.369197
0.369092
0.369078
0.369181
0.3694
0.369791
0.370405
0.371333
0.372638
0.374297
0.375903
0.376528
0.377932
0.377257
0.375303
0.37333
0.371741
0.370646
0.36992
0.369489
0.369238
0.369133
0.369119
0.369225
0.369448
0.369847
0.370471
0.371415
0.37274
0.374423
0.37605
0.376678
0.378089
0.377399
0.375418
0.37342
0.371814
0.370706
0.369972
0.369537
0.369284
0.369178
0.369165
0.369274
0.369501
0.369908
0.370543
0.371503
0.37285
0.374559
0.376208
0.376838
0.378264
0.377557
0.375548
0.373523
0.371897
0.370775
0.370034
0.369594
0.369338
0.369232
0.36922
0.369331
0.369563
0.369978
0.370626
0.371603
0.372973
0.37471
0.376383
0.377016
0.378455
0.377731
0.375691
0.373638
0.37199
0.370854
0.370103
0.369657
0.369399
0.369292
0.369281
0.369395
0.369633
0.370056
0.370716
0.371713
0.373108
0.374875
0.376573
0.377209
0.378666
0.377924
0.375852
0.373767
0.372096
0.370944
0.370184
0.369732
0.369471
0.369363
0.369353
0.36947
0.369713
0.370145
0.37082
0.371836
0.373258
0.375057
0.376783
0.377423
0.378899
0.378137
0.37603
0.373912
0.372216
0.371046
0.370275
0.369817
0.369553
0.369444
0.369435
0.369555
0.369804
0.370246
0.370936
0.371973
0.373424
0.375258
0.377013
0.377657
0.379157
0.378374
0.37623
0.374075
0.372353
0.371164
0.370382
0.369915
0.369648
0.369538
0.36953
0.369653
0.369909
0.370361
0.371067
0.372128
0.37361
0.37548
0.377269
0.377916
0.379442
0.378638
0.376453
0.374259
0.372507
0.371298
0.370503
0.370029
0.369758
0.369646
0.36964
0.369766
0.370029
0.370492
0.371215
0.372301
0.373817
0.375727
0.37755
0.378202
0.37976
0.378932
0.376704
0.374468
0.372684
0.371452
0.370643
0.37016
0.369885
0.369771
0.369767
0.369896
0.370167
0.370642
0.371384
0.372496
0.374048
0.376002
0.377862
0.378519
0.380113
0.37926
0.376986
0.374703
0.372885
0.371628
0.370804
0.370312
0.370032
0.369916
0.369913
0.370047
0.370326
0.370814
0.371576
0.372717
0.374308
0.376309
0.37821
0.378872
0.380507
0.379627
0.377303
0.37497
0.373114
0.371831
0.370991
0.370487
0.370203
0.370085
0.370084
0.370221
0.37051
0.37101
0.371795
0.372966
0.374601
0.376651
0.378597
0.379264
0.380948
0.380039
0.377661
0.375274
0.373377
0.372065
0.371207
0.370692
0.370402
0.370281
0.370282
0.370424
0.370722
0.371238
0.372046
0.373252
0.374932
0.377037
0.37903
0.379704
0.381443
0.380503
0.378065
0.37562
0.373679
0.372334
0.371457
0.370929
0.370633
0.37051
0.370513
0.370659
0.370968
0.371499
0.372333
0.373575
0.375306
0.377469
0.379515
0.380195
0.382
0.381027
0.378525
0.376016
0.374026
0.372647
0.371748
0.371206
0.370904
0.370777
0.370783
0.370934
0.371254
0.371803
0.372665
0.373947
0.375732
0.37796
0.380062
0.38075
0.382628
0.381619
0.379048
0.376469
0.374426
0.373009
0.372087
0.37153
0.37122
0.37109
0.371098
0.371255
0.371587
0.372155
0.373048
0.374372
0.376217
0.378514
0.380678
0.381373
0.38334
0.382292
0.379646
0.37699
0.374889
0.373431
0.372483
0.371909
0.371591
0.371458
0.371469
0.371632
0.371977
0.372566
0.373492
0.374863
0.376772
0.379147
0.381377
0.382082
0.384147
0.383058
0.380329
0.377591
0.375426
0.373923
0.372947
0.372355
0.372028
0.37189
0.371904
0.372074
0.372434
0.373044
0.374007
0.375429
0.37741
0.379867
0.38217
0.382883
0.385069
0.383935
0.381117
0.378288
0.376053
0.3745
0.373493
0.372881
0.372544
0.372403