/*--------------------------------*- C++ -*----------------------------------*\
  =========                 |
  \\      /  F ield         | OpenFOAM: The Open Source CFD Toolbox
   \\    /   O peration     | Website:  https://openfoam.org
    \\  /    A nd           | Version:  6
     \\/     M anipulation  |
\*---------------------------------------------------------------------------*/
FoamFile
{
    version     2.0;
    format      ascii;
    class       volScalarField;
    location    "2";
    object      nut;
}
// * * * * * * * * * * * * * * * * * * * * * * * * * * * * * * * * * * * * * //

dimensions      [0 2 -1 0 0 0 0];

internalField   nonuniform List<scalar> 
10000
(
4.20365e-05
0.000148909
0.000199577
0.000230476
0.000316699
0.000440338
0.000574303
0.000690138
0.000763265
0.000792501
0.000783552
0.000739355
0.000661248
0.000556419
0.00044121
0.000330987
0.000251016
0.000199841
0.000148621
4.62422e-05
4.69113e-05
0.000146373
0.000192782
0.00023209
0.000325057
0.000449392
0.000586473
0.000699521
0.000768134
0.000795509
0.000787534
0.000746623
0.000673358
0.000571263
0.000456543
0.000348126
0.000266642
0.000225902
0.000174498
5.07788e-05
4.46662e-05
0.000149398
0.000200662
0.00024267
0.000337481
0.000463056
0.000597847
0.000706227
0.000770904
0.000795785
0.000788458
0.000751309
0.00068356
0.00058702
0.000473545
0.000356103
0.000265492
0.000204303
0.000147578
4.79778e-05
4.50373e-05
0.000171567
0.00024306
0.000300598
0.000408871
0.000533296
0.000642305
0.000723444
0.000776839
0.000797954
0.000790365
0.00075562
0.000693562
0.000606685
0.000512641
0.00044136
0.000337578
0.000239573
0.000153185
4.76973e-05
4.62005e-05
0.000160691
0.000210596
0.00025209
0.000349727
0.00047939
0.000615138
0.00071887
0.000777393
0.000799208
0.000792511
0.000763598
0.0007154
0.000632095
0.000526382
0.000412801
0.000314538
0.000252687
0.000198535
4.8892e-05
4.21258e-05
0.000170565
0.00026274
0.000325636
0.000434902
0.000556094
0.000668673
0.000735442
0.000781411
0.000800307
0.00079447
0.000757524
0.000687968
0.000589582
0.000481867
0.000380781
0.000290709
0.000232183
0.000182094
4.88631e-05
4.43999e-05
0.000155832
0.000219189
0.000266832
0.000367242
0.000492633
0.000625553
0.000728257
0.00078486
0.000803177
0.00078642
0.000740103
0.000660187
0.000549761
0.000432627
0.000344034
0.000256702
0.000205596
0.000165754
4.87692e-05
4.54496e-05
0.000139865
0.000190346
0.000232782
0.000326751
0.00044755
0.000587967
0.000703193
0.000770871
0.000797051
0.000793484
0.000753828
0.000677619
0.000562138
0.000415437
0.000305128
0.000223932
0.000176502
0.000136742
4.74597e-05
4.65844e-05
0.000145174
0.000223821
0.000244903
0.000326439
0.000446557
0.000585462
0.000702204
0.000777571
0.000802116
0.000790035
0.000737389
0.000654978
0.000543438
0.000419001
0.000309119
0.000228256
0.000179779
0.000137248
4.75244e-05
4.62828e-05
0.00016842
0.000208714
0.000249348
0.00035004
0.000461285
0.000588782
0.000701152
0.00076825
0.000794845
0.000788372
0.000755331
0.000679857
0.000554718
0.00043233
0.000322682
0.000238737
0.000187198
0.000141461
4.73062e-05
4.19086e-05
0.000131979
0.000174853
0.000208515
0.000297827
0.000424173
0.000571967
0.000706251
0.000770603
0.000794819
0.000790344
0.000744187
0.000668628
0.000563928
0.000448443
0.000339694
0.000254292
0.000199674
0.000148948
4.72696e-05
4.33622e-05
0.000133406
0.000175178
0.00020935
0.00029921
0.000423243
0.000568197
0.000693204
0.000774805
0.000800581
0.000791182
0.000750327
0.000687688
0.000597573
0.000499607
0.000400323
0.000308147
0.000245327
0.000191387
4.95374e-05
4.1579e-05
0.000132262
0.00017779
0.000212156
0.000299765
0.000424176
0.000568921
0.000691614
0.00077078
0.000793199
0.000780439
0.00073398
0.000652044
0.000541109
0.00043034
0.000335771
0.000250321
0.000201167
0.000163113
4.84696e-05
4.3729e-05
0.000137013
0.000181816
0.000218096
0.000307964
0.000431066
0.000573176
0.000692102
0.000764773
0.000796765
0.0007886
0.000745803
0.000661357
0.000530708
0.00040631
0.000298969
0.000219562
0.000173732
0.000135413
4.73441e-05
4.45515e-05
0.000139338
0.000187098
0.000224653
0.000312667
0.000436779
0.000579289
0.000695028
0.000763855
0.000789273
0.000777223
0.000729863
0.000645426
0.000530432
0.000407967
0.000300429
0.000222056
0.000175777
0.000135404
4.74133e-05
4.59479e-05
0.000156225
0.000213266
0.0002596
0.000335607
0.000448278
0.000586113
0.000696891
0.000764835
0.000789584
0.000777675
0.000731456
0.000649032
0.000537105
0.000416641
0.000309682
0.000229408
0.000180835
0.000138435
4.71927e-05
4.61589e-05
0.000144705
0.000171803
0.000202972
0.000293323
0.000423388
0.000589228
0.000697135
0.000764358
0.00078969
0.000779427
0.00073515
0.000655447
0.000545974
0.000426647
0.000319989
0.000240457
0.000189474
0.000143596
4.71637e-05
4.24011e-05
0.000130598
0.00016976
0.000203721
0.000292429
0.00041947
0.000567769
0.000690449
0.000764667
0.000791274
0.00078181
0.00074027
0.00066397
0.000557259
0.000439856
0.000338674
0.000285003
0.000224279
0.000176098
4.88945e-05
4.50159e-05
0.000134801
0.0001683
0.000204248
0.000295153
0.000420907
0.000566778
0.000689523
0.000763589
0.000792163
0.000786004
0.000758614
0.000692779
0.000592658
0.000465872
0.000325556
0.000242949
0.000190006
0.000143332
4.7287e-05
4.74432e-05
0.000145945
0.000173512
0.000205905
0.000293684
0.000419757
0.000566548
0.00069028
0.000765352
0.000797505
0.000784211
0.000740816
0.000665129
0.000561084
0.000445751
0.000336754
0.000254991
0.000200312
0.000149196
4.72039e-05
4.59918e-05
0.000143494
0.000172267
0.000207555
0.000297781
0.000422927
0.000568259
0.000692608
0.000775116
0.000801319
0.000787151
0.00074247
0.000667617
0.000572499
0.000485503
0.000385431
0.000309931
0.000246854
0.000192085
4.94904e-05
4.24359e-05
0.000132988
0.000174979
0.000210129
0.000298753
0.000424381
0.000569565
0.00069257
0.000773347
0.000800042
0.000797796
0.000757293
0.000667531
0.000554354
0.000431609
0.000322506
0.00025896
0.000206296
0.000165343
4.84466e-05
4.50233e-05
0.000139062
0.00017718
0.000215819
0.000307183
0.000431372
0.000573534
0.00069304
0.000767411
0.000802493
0.000799408
0.000764746
0.000695755
0.000588742
0.00045367
0.000310003
0.000225666
0.000179979
0.000138924
4.73204e-05
4.73493e-05
0.000152975
0.000188102
0.000225747
0.000315974
0.000440689
0.000581773
0.000698032
0.000768588
0.000798453
0.000792925
0.000754152
0.000676703
0.000564468
0.00043616
0.000320389
0.000236602
0.000186314
0.000142238
4.73235e-05
4.53538e-05
0.000150554
0.000195171
0.00023461
0.000335287
0.000463352
0.000600904
0.000710381
0.000775538
0.000804692
0.000806718
0.00078378
0.000721153
0.000605681
0.000467087
0.000343785
0.000252043
0.00019796
0.000163226
4.89271e-05
4.13036e-05
0.000144534
0.000212402
0.000306565
0.000434686
0.000564121
0.000680288
0.000759498
0.000795375
0.000811683
0.00081197
0.000788154
0.000739636
0.000660988
0.000549481
0.000410858
0.000269997
0.000209216
0.000168256
4.87328e-05
4.33207e-05
0.000179935
0.000274073
0.000305947
0.0003947
0.000509727
0.00063461
0.000732019
0.000788351
0.000811818
0.000807496
0.000779803
0.000727161
0.000645595
0.000542499
0.000434252
0.00034203
0.000268644
0.000199282
4.89141e-05
4.31232e-05
0.000164805
0.000232073
0.000258191
0.000345432
0.000460953
0.000597074
0.000707052
0.000772731
0.000802374
0.000798262
0.000768321
0.000711072
0.00062352
0.000516104
0.000404047
0.000307567
0.00024354
0.000188326
4.87717e-05
4.33246e-05
0.00016697
0.000213943
0.000257427
0.000360316
0.00045804
0.000595269
0.00070389
0.000769635
0.000795395
0.000787474
0.000750403
0.000686216
0.00059078
0.000483525
0.000382021
0.000291799
0.000233269
0.000182971
4.87442e-05
4.27844e-05
0.00013552
0.000179109
0.000215224
0.000306622
0.000432332
0.000595511
0.000704329
0.000769157
0.000795962
0.000790557
0.000741204
0.000660629
0.000550675
0.000433526
0.000343339
0.000256692
0.00020478
0.000165011
4.85961e-05
4.31242e-05
0.000135061
0.000180292
0.000215919
0.000304007
0.000428493
0.000576327
0.000708824
0.000778424
0.000799491
0.000794448
0.000754764
0.000678829
0.000563326
0.000416603
0.000305323
0.000223728
0.000176093
0.000136409
4.73021e-05
4.34505e-05
0.000138624
0.000184952
0.000223228
0.000313219
0.000434998
0.000574998
0.000693574
0.00076575
0.000797624
0.000788752
0.000739753
0.000656725
0.00054495
0.000421095
0.000309185
0.000227972
0.000179376
0.000136968
4.73809e-05
4.41346e-05
0.00014295
0.000191778
0.000233825
0.000323318
0.00044492
0.000584037
0.000698022
0.000766266
0.000793092
0.000784907
0.000745201
0.000677387
0.000554046
0.000430858
0.000321874
0.000238144
0.000186699
0.000141182
4.718e-05
4.48383e-05
0.000177801
0.000237886
0.000286324
0.00036315
0.000466771
0.000597084
0.00070391
0.000768512
0.000794643
0.000791591
0.000753603
0.000670259
0.000564802
0.000448506
0.000338659
0.000253309
0.000198977
0.000148613
4.71565e-05
4.4671e-05
0.000143247
0.000194133
0.000236553
0.000326784
0.000452941
0.000612571
0.000725356
0.000783827
0.000800971
0.000783502
0.000747614
0.000685448
0.000599928
0.000502305
0.000397646
0.000305223
0.000243647
0.00019072
4.94408e-05
4.41701e-05
0.000148141
0.000200747
0.000248494
0.000345234
0.000468274
0.000603506
0.000710875
0.000772354
0.000792773
0.000777849
0.000726886
0.000642081
0.000533155
0.000434014
0.000332257
0.000246296
0.000198516
0.000161929
4.8382e-05
4.61475e-05
0.0001919
0.000255684
0.000311208
0.000418752
0.000528299
0.00064866
0.000740059
0.000788981
0.000802295
0.000783517
0.000725433
0.000636565
0.000520142
0.000397491
0.000291487
0.000213741
0.000169958
0.000133783
4.72778e-05
4.46005e-05
0.000162303
0.000207968
0.000246885
0.000346926
0.000450751
0.000595091
0.000705134
0.000769211
0.000790558
0.00077553
0.000724717
0.000637762
0.000521424
0.000398463
0.000290489
0.000213666
0.000170053
0.000132777
4.7378e-05
4.26917e-05
0.000134707
0.000177914
0.000213895
0.000305187
0.00043096
0.000594723
0.000703854
0.000766992
0.00078958
0.000775982
0.000727078
0.000641557
0.000526119
0.000402469
0.000295716
0.000216946
0.000171831
0.000133851
4.72239e-05
4.30263e-05
0.000134186
0.000178812
0.000214399
0.000302651
0.000427464
0.000576262
0.000709246
0.000777029
0.000794555
0.000785428
0.00073229
0.000647872
0.000534825
0.000411479
0.000302122
0.000222484
0.000175717
0.000135233
4.73285e-05
4.33134e-05
0.000137297
0.000182393
0.000220451
0.000310416
0.000432757
0.000574026
0.000693137
0.000764142
0.000790537
0.000780163
0.000734583
0.000653911
0.000542776
0.00042129
0.000313424
0.000230942
0.000181334
0.00013855
4.71083e-05
4.39311e-05
0.000140874
0.000187265
0.000228604
0.000317265
0.000439694
0.000581536
0.000697289
0.000766189
0.000792376
0.000782916
0.000739849
0.000663355
0.000556224
0.000437514
0.000328224
0.000243764
0.000190777
0.000144153
4.70619e-05
4.45226e-05
0.000172751
0.000225712
0.000270597
0.000345647
0.000452781
0.000590079
0.000701288
0.000768345
0.000794543
0.000786026
0.000745716
0.000673068
0.000572246
0.000464917
0.000386708
0.00029539
0.000228015
0.000178031
4.84682e-05
4.40288e-05
0.000136483
0.000181175
0.000217183
0.000307515
0.000432753
0.000596816
0.000706129
0.000770547
0.000797963
0.000797746
0.00076522
0.00070144
0.000600101
0.000455106
0.000339143
0.000252628
0.000195985
0.00014806
4.69123e-05
4.29992e-05
0.000136731
0.000183032
0.000217808
0.000305066
0.000429728
0.000576571
0.000709467
0.000779654
0.000803022
0.000789507
0.000748635
0.000679481
0.000599576
0.00049938
0.000386982
0.000291423
0.000228136
0.000178594
4.93675e-05
4.53283e-05
0.000140993
0.000189128
0.000225632
0.000313594
0.000432992
0.000573539
0.000692883
0.000765611
0.000795434
0.000793693
0.000753996
0.000672725
0.000571003
0.000456803
0.000347643
0.000259099
0.000201368
0.000149636
4.76149e-05
4.63989e-05
0.000147352
0.000198023
0.000236317
0.000322652
0.000442795
0.000580657
0.000695391
0.000764895
0.000793042
0.000788632
0.000744933
0.000684352
0.000599108
0.000495997
0.000400286
0.000306981
0.0002405
0.00018391
4.9385e-05
4.69835e-05
0.000185126
0.00022713
0.000249191
0.000330098
0.000446621
0.00058312
0.000697491
0.000766155
0.000792787
0.000783696
0.000740374
0.000660787
0.000549503
0.000429998
0.000342826
0.000257398
0.00019943
0.0001498
4.79153e-05
4.63353e-05
0.000170974
0.000247616
0.000264526
0.000345298
0.000456124
0.000588849
0.000700979
0.00076845
0.00079583
0.000791323
0.000761595
0.000686541
0.000567247
0.000419047
0.000305594
0.000225321
0.00017673
0.000136153
4.80982e-05
4.5991e-05
0.000171568
0.00022509
0.000270794
0.000370385
0.000466993
0.000595545
0.00070414
0.00076966
0.00079775
0.000797155
0.000758184
0.000673759
0.000550726
0.000427419
0.00031504
0.000231243
0.00018066
0.000137047
4.7705e-05
4.16949e-05
0.000141679
0.000197137
0.00023839
0.000332383
0.00045491
0.000593481
0.000719493
0.000784933
0.000807622
0.000800633
0.000767201
0.00070118
0.000593515
0.000444571
0.000327531
0.000243027
0.000188679
0.000140636
4.7553e-05
4.39212e-05
0.000147622
0.000208888
0.000253684
0.000347852
0.000469163
0.000602859
0.000711994
0.000775072
0.000799104
0.000791472
0.000754712
0.000686419
0.000586689
0.000466638
0.000352315
0.000262548
0.00020267
0.000146955
4.78163e-05
4.37506e-05
0.000174528
0.000264002
0.000327831
0.000432775
0.00053847
0.000655832
0.00074441
0.000793422
0.000810546
0.00080269
0.00077001
0.000716871
0.000641305
0.000539647
0.000430126
0.000332259
0.000256627
0.000185215
4.93092e-05
4.40103e-05
0.000159533
0.000217479
0.00026401
0.000358982
0.000464417
0.000603103
0.000710692
0.000774047
0.000798595
0.000790476
0.000751348
0.000681819
0.00059547
0.000482102
0.000373424
0.000291043
0.000225334
0.000162394
4.82406e-05
4.48378e-05
0.000140642
0.000188224
0.000228393
0.000321808
0.000447309
0.000608726
0.000724687
0.000786243
0.000809085
0.000802292
0.000764153
0.000679904
0.000570906
0.000448661
0.000339126
0.000273572
0.000212562
0.000154796
4.8251e-05
4.43006e-05
0.00014417
0.000192112
0.000235673
0.000330027
0.00045648
0.000596541
0.000708672
0.000774051
0.000800312
0.000796592
0.000769924
0.00070922
0.000610628
0.000479888
0.000332499
0.000242245
0.000190155
0.00014268
4.86362e-05
4.5485e-05
0.00017888
0.000234441
0.000282415
0.000386712
0.000514762
0.000643724
0.000739447
0.000789703
0.000809058
0.000800634
0.000759726
0.000690746
0.000590227
0.000470099
0.00035263
0.000261256
0.000200958
0.000147613
4.85593e-05
4.41497e-05
0.000146353
0.000191988
0.000236587
0.00033417
0.000457924
0.000597001
0.000708649
0.000772822
0.000798371
0.000795162
0.000772602
0.000723031
0.0006423
0.000539836
0.000429838
0.000327993
0.000246739
0.000167288
4.84776e-05
4.5622e-05
0.000173255
0.000223267
0.000264495
0.000361768
0.000461523
0.00059684
0.000704957
0.000770358
0.000795577
0.000789052
0.000757942
0.000691834
0.000595137
0.000482945
0.000377883
0.0002894
0.000226621
0.000164797
4.78705e-05
4.37636e-05
0.000137961
0.000183957
0.000219563
0.000309153
0.00043674
0.000600315
0.000717512
0.000774655
0.000795745
0.000785695
0.000744414
0.000669184
0.000563644
0.000445586
0.000344979
0.000266525
0.000212297
0.000171196
4.9341e-05
4.39852e-05
0.000139527
0.000185678
0.000222901
0.000312755
0.000436285
0.000579575
0.00069884
0.000775873
0.000802894
0.000796033
0.000759533
0.000690467
0.000587236
0.000456341
0.000317967
0.000234017
0.000184288
0.000141272
4.76493e-05
4.46549e-05
0.000143532
0.000191706
0.000232115
0.00032057
0.000443497
0.000585073
0.000699501
0.000767318
0.000793028
0.000783642
0.000740529
0.000662615
0.00055289
0.000431294
0.000321805
0.000242181
0.000191364
0.000144955
4.75847e-05
4.53378e-05
0.0001776
0.000235087
0.000279848
0.000355881
0.000461448
0.000595947
0.00070393
0.000768131
0.000792974
0.000784406
0.00074372
0.00066907
0.000561941
0.000442794
0.00034029
0.000286872
0.000226771
0.000177991
4.89941e-05
4.50766e-05
0.000141363
0.000189094
0.000225989
0.000312311
0.000440143
0.000604984
0.000722405
0.000783765
0.000803379
0.000788811
0.000753472
0.000698358
0.000601065
0.000471966
0.000327867
0.000243783
0.00019109
0.000144443
4.76282e-05
4.47482e-05
0.000144094
0.000192886
0.000232438
0.000321245
0.00044514
0.000585983
0.000700856
0.000768255
0.000793459
0.000784201
0.000744818
0.000674573
0.000573647
0.000455673
0.000341745
0.000255873
0.000201223
0.000150217
4.75191e-05
4.69724e-05
0.000161997
0.000207668
0.000249377
0.000341627
0.000464866
0.000598794
0.000707009
0.000770403
0.000794196
0.000787779
0.000752127
0.000692567
0.000608227
0.00050941
0.000401332
0.000308861
0.000246435
0.000192881
4.97188e-05
4.75006e-05
0.000198138
0.000225745
0.000295148
0.000404843
0.000535314
0.000657642
0.000745725
0.000791446
0.000802337
0.000779907
0.000729352
0.000648744
0.000547164
0.00044363
0.000334285
0.000249411
0.000201034
0.000163735
4.86699e-05
4.68084e-05
0.000186497
0.00024982
0.000267491
0.000354677
0.000477989
0.000611311
0.000716421
0.000775026
0.000793732
0.000777776
0.000728451
0.000643188
0.000528567
0.000405841
0.000297112
0.000217768
0.000172728
0.000135306
4.75619e-05
4.56918e-05
0.000172964
0.00022642
0.000278521
0.000385753
0.000515561
0.00064424
0.000738701
0.00078959
0.000804521
0.00078647
0.000733368
0.000647573
0.000532205
0.000408116
0.000298595
0.000219457
0.000173868
0.000134716
4.76099e-05
4.39823e-05
0.000148884
0.000198828
0.000247339
0.000348027
0.000475381
0.000610092
0.000715484
0.000776052
0.000797458
0.000785102
0.000738226
0.000654803
0.000542033
0.000418908
0.000308415
0.000225594
0.000177409
0.000136699
4.73725e-05
4.57612e-05
0.000182114
0.000242035
0.000293222
0.000399057
0.000525632
0.000651956
0.000743905
0.000793915
0.000811021
0.00080234
0.00076264
0.000679227
0.000555645
0.000429805
0.000319403
0.000235064
0.000184116
0.000139884
4.73735e-05
4.4084e-05
0.000151336
0.000206423
0.000256109
0.000356151
0.000481181
0.000614171
0.000717894
0.000778048
0.000800989
0.000796047
0.000760765
0.000689888
0.000570552
0.000448405
0.000337757
0.000249497
0.000194316
0.000147011
4.70183e-05
4.55499e-05
0.000191937
0.00025631
0.000311386
0.000418285
0.00052852
0.000649038
0.000741251
0.000790861
0.000805795
0.000789471
0.000748448
0.000683996
0.00060616
0.000503034
0.000391694
0.000296208
0.000231807
0.000180854
4.96478e-05
4.35803e-05
0.000163082
0.000210361
0.000249962
0.00034959
0.000454469
0.000598323
0.000708154
0.000772546
0.000796545
0.000789891
0.000744422
0.000671516
0.00057305
0.000459739
0.000350713
0.000263223
0.000205121
0.000152258
4.78841e-05
4.24686e-05
0.000134929
0.000179599
0.000215539
0.000307262
0.000433517
0.000598184
0.000707653
0.000770788
0.0007945
0.000784832
0.00074484
0.000676424
0.000593561
0.000501849
0.000403305
0.000316575
0.000249248
0.000191036
4.92501e-05
4.27754e-05
0.000134252
0.00018048
0.000215503
0.000303755
0.000428409
0.000576253
0.000709678
0.000780165
0.000803325
0.000788984
0.000746647
0.00067167
0.000566004
0.000446226
0.000339829
0.000270819
0.00021443
0.000169065
4.9379e-05
4.30615e-05
0.00013722
0.000184308
0.000220946
0.000310457
0.000430843
0.000572578
0.000693178
0.000766544
0.000796251
0.000795575
0.000763768
0.000699229
0.000599208
0.00047147
0.000328636
0.000239458
0.000188249
0.000141966
4.81966e-05
4.37127e-05
0.000140794
0.000190184
0.000228241
0.000316963
0.000438766
0.000578716
0.00069569
0.000765506
0.000792624
0.000784608
0.000744391
0.000673237
0.000571366
0.000454955
0.000343707
0.00025532
0.000197406
0.000145747
4.81768e-05
4.43545e-05
0.000163101
0.000208223
0.000243288
0.00033383
0.000454475
0.000589762
0.000702612
0.000769176
0.000794322
0.000784871
0.000744587
0.000681611
0.000599636
0.000500165
0.000404695
0.000311546
0.000238735
0.000168343
4.79083e-05
4.34255e-05
0.000182107
0.000226944
0.000264463
0.0003876
0.000518739
0.000645805
0.000738104
0.000786472
0.000805658
0.000793118
0.000743187
0.000663483
0.000555181
0.000438393
0.000344657
0.000264523
0.000209736
0.000169021
4.93431e-05
4.37677e-05
0.000163628
0.000238423
0.000259267
0.000345015
0.000460442
0.000596668
0.000707566
0.000771768
0.000795833
0.000787816
0.00075472
0.000682539
0.000570057
0.00042427
0.000311994
0.000229584
0.000182694
0.00013995
4.77761e-05
4.29995e-05
0.000167591
0.000222363
0.000273158
0.000374091
0.000466931
0.000599282
0.000707034
0.000770735
0.000794463
0.000783595
0.000740292
0.000660907
0.0005507
0.000429971
0.000321795
0.000240042
0.000189039
0.000143077
4.73998e-05
4.18832e-05
0.000137159
0.000189262
0.000232652
0.000326271
0.00044679
0.000606139
0.000722601
0.000784852
0.000805703
0.000794349
0.000745067
0.000665936
0.000558118
0.00044129
0.000342443
0.000279101
0.00022039
0.000173993
4.9188e-05
4.2191e-05
0.000138933
0.000191883
0.000238442
0.000330474
0.000449269
0.000589058
0.00070337
0.000770568
0.000796319
0.000789914
0.00075923
0.000692108
0.000589908
0.000463523
0.000323671
0.000236777
0.000184767
0.000140073
4.75274e-05
4.36981e-05
0.000170738
0.000234363
0.000286304
0.000366515
0.000465558
0.000596975
0.000704889
0.000770392
0.000795386
0.000785746
0.00074337
0.000665168
0.000555811
0.000434342
0.000325393
0.000242772
0.00019042
0.00014304
4.73996e-05
4.17686e-05
0.000135406
0.000189886
0.00023504
0.000329397
0.000451391
0.000608472
0.000724403
0.000786622
0.000808487
0.000798378
0.000749347
0.000670733
0.000562961
0.000444136
0.000341209
0.000278792
0.000221794
0.000174245
4.99751e-05
4.25435e-05
0.000137352
0.000190698
0.000237706
0.00033154
0.000452437
0.000588885
0.000702778
0.000771633
0.000799886
0.00080088
0.00076872
0.000700687
0.000598913
0.000470289
0.000328296
0.000240567
0.000187488
0.00014071
4.75988e-05
4.52433e-05
0.000160072
0.000206048
0.000247529
0.000340955
0.000461562
0.000594931
0.000705427
0.000773316
0.000805703
0.000799822
0.000758144
0.000677484
0.000569146
0.000447145
0.000333402
0.000244547
0.000193292
0.000144818
4.77585e-05
4.51584e-05
0.000184294
0.000223001
0.000265422
0.000381649
0.000513474
0.000640082
0.000736057
0.000790291
0.000810131
0.000803913
0.00076689
0.000685706
0.000580671
0.000463326
0.000357056
0.000288797
0.000229232
0.000182064
4.88791e-05
4.45038e-05
0.000176719
0.000250209
0.000277748
0.000366229
0.000479578
0.000604443
0.000709844
0.000773372
0.00080079
0.000801183
0.000773129
0.000715615
0.00062332
0.000504099
0.000373556
0.000250385
0.00019456
0.00015941
4.78816e-05
4.38258e-05
0.000167334
0.000227425
0.000291246
0.000399488
0.00049839
0.000610379
0.000712273
0.00077526
0.000805982
0.000796538
0.000761264
0.000695424
0.000593912
0.000472133
0.000351986
0.000256233
0.000199568
0.000159815
4.80474e-05
4.27124e-05
0.000151969
0.000201447
0.000256636
0.000358706
0.000479181
0.000606963
0.000714686
0.000788217
0.000814515
0.000812605
0.000783112
0.000713502
0.000615457
0.000498546
0.000377883
0.000275266
0.000210041
0.000163459
4.68584e-05
4.12301e-05
0.000150841
0.000207589
0.00026732
0.000370399
0.000487458
0.000617453
0.000722875
0.000792412
0.000816982
0.000815895
0.000792728
0.000739172
0.00068265
0.000591759
0.000472137
0.00035184
0.00026139
0.000186631
4.54171e-05
3.8088e-05
0.000152261
0.000218962
0.000292958
0.000414012
0.000535504
0.000686362
0.00077328
0.000811635
0.000824174
0.000820362
0.000799323
0.00075246
0.000664511
0.000570348
0.000443729
0.000321086
0.00023512
0.000170805
4.25344e-05
3.4056e-05
0.000170735
0.000272548
0.000383929
0.000533012
0.000648688
0.000735792
0.00079025
0.000818144
0.00082856
0.000825819
0.000808452
0.000769921
0.000700616
0.000594167
0.000457013
0.00032151
0.000223885
0.000152086
3.81072e-05
2.85964e-05
0.000150591
0.000240429
0.000352411
0.000499373
0.000637347
0.000740121
0.000801002
0.000831291
0.000843021
0.000841718
0.000826166
0.000789464
0.000720299
0.00061167
0.000475876
0.000322096
0.000209101
0.000139856
3.18958e-05
2.28909e-05
0.000130325
0.000225164
0.000365749
0.000532795
0.000681627
0.000781731
0.000838572
0.00086723
0.00087911
0.000879201
0.000866598
0.000834192
0.000767669
0.000645365
0.000503988
0.000338712
0.000202826
0.00012048
2.49489e-05
1.928e-05
9.97846e-05
0.000205757
0.000376102
0.000564871
0.000700747
0.000801755
0.000860073
0.000889443
0.000901497
0.000902069
0.000891635
0.000864533
0.000811115
0.000722883
0.00056865
0.000372728
0.000202881
0.000100817
2.03711e-05
2.09604e-05
8.56751e-05
0.000237692
0.000478026
0.000693147
0.000821791
0.000867302
0.00088045
0.000885132
0.000887071
0.000887057
0.000884395
0.000877682
0.000859933
0.00080707
0.000676682
0.00046398
0.000235265
8.55433e-05
2.14506e-05
2.46899e-05
0.000502269
0.00141726
0.00105158
0.000928078
0.000887788
0.000872981
0.000866685
0.000863779
0.000862651
0.000862842
0.000864455
0.000868094
0.000875656
0.000892667
0.00093651
0.00106489
0.00143868
0.000490053
2.47046e-05
0.000110609
0.00036714
0.000488282
0.000383446
0.000307526
0.000389013
0.000559713
0.000718916
0.000803507
0.000826296
0.000807657
0.000748593
0.000644396
0.000513303
0.000403065
0.00036206
0.000425381
0.000465162
0.000380471
0.000120466
0.000154306
0.000348178
0.00041657
0.000304595
0.000285942
0.00039425
0.000573134
0.000726529
0.000803981
0.000824185
0.000806422
0.000750239
0.000648527
0.000514723
0.000393464
0.000328503
0.000344724
0.000396511
0.000359054
0.000172071
0.000111325
0.000358351
0.000446426
0.000331716
0.000295707
0.0004006
0.000578384
0.000727604
0.000802936
0.000823163
0.000806945
0.00075374
0.000655404
0.000523213
0.000401482
0.000339336
0.000369111
0.000415499
0.000360695
0.000131717
8.81895e-05
0.000288072
0.000389591
0.000368096
0.000300455
0.000401463
0.000577022
0.000726145
0.00080221
0.000823406
0.000809071
0.000758698
0.000663306
0.000532498
0.000409911
0.000344058
0.000372126
0.00050002
0.000392745
0.00013628
9.55006e-05
0.000283883
0.000394288
0.000303818
0.000280572
0.000394451
0.000574026
0.000726046
0.000803444
0.000825593
0.000813545
0.000766755
0.000674707
0.000544856
0.000420779
0.000347187
0.000340133
0.000377327
0.000344434
0.000130656
0.000123149
0.000316788
0.00040411
0.000295869
0.000281153
0.000454177
0.000649007
0.000745405
0.000807501
0.000828122
0.000818753
0.000776843
0.0006898
0.000562543
0.000443217
0.000379652
0.000362768
0.000383101
0.000377128
0.000135426
0.000115054
0.000324139
0.000425381
0.000325695
0.000291214
0.000392457
0.000570836
0.000723906
0.000802713
0.000829227
0.000824297
0.000789054
0.000708208
0.000579091
0.000451188
0.000437869
0.000499133
0.000511486
0.000439654
0.000134745
0.000110215
0.000333664
0.000427027
0.000333027
0.000306527
0.000411725
0.000585875
0.000732287
0.000807382
0.000836473
0.000834213
0.000823035
0.000770614
0.000641225
0.000430573
0.000358546
0.000385908
0.000403679
0.000385579
0.000133594
8.40118e-05
0.000355867
0.000458354
0.000364545
0.000337265
0.000446007
0.00061512
0.000748376
0.00081247
0.000831657
0.00082673
0.000790597
0.000716375
0.000593382
0.000459201
0.000346793
0.000277622
0.000335405
0.000316579
0.000132851
9.41663e-05
0.000411861
0.000558529
0.00049054
0.000469832
0.000586087
0.000720045
0.000803191
0.000834253
0.000838962
0.000819452
0.000768142
0.000668336
0.000522311
0.000381002
0.000304162
0.000306586
0.000347003
0.000316153
0.000132892
9.53467e-05
0.0003643
0.000430027
0.000276844
0.000281266
0.00040829
0.000590652
0.00074122
0.000811801
0.000831566
0.000825834
0.000803212
0.000696794
0.000599703
0.000397668
0.000314562
0.00030961
0.000345379
0.000316158
0.000130187
9.94493e-05
0.000319341
0.000364341
0.000261126
0.000324859
0.000481625
0.00061789
0.000751595
0.000813008
0.000831968
0.000826136
0.000799499
0.00069595
0.00056164
0.000423849
0.000341635
0.000343458
0.000372558
0.000326218
0.000127836
9.63245e-05
0.000287492
0.000406367
0.000317388
0.0003026
0.000412771
0.000592439
0.000760991
0.00082352
0.000839168
0.000829111
0.00079928
0.000728864
0.000626302
0.000492278
0.000392623
0.000368933
0.000383521
0.00032984
0.000120742
0.000122266
0.00038581
0.000561014
0.000338585
0.000320429
0.000421218
0.000593787
0.00073662
0.000808633
0.000832975
0.000836791
0.000813996
0.000787327
0.000723066
0.000646561
0.000586643
0.000478301
0.000375841
0.000356916
0.000103108
0.000110577
0.000309872
0.000395732
0.000298601
0.00034895
0.000427581
0.000593626
0.000734782
0.000807457
0.000830902
0.000830069
0.000814835
0.000734567
0.000622536
0.000502258
0.000482743
0.00047699
0.000524117
0.00042617
0.00011571
0.000112532
0.000311306
0.000388921
0.000307079
0.000294456
0.000405717
0.000584012
0.000732963
0.000808344
0.000830607
0.000828414
0.000816899
0.000778072
0.000675113
0.000482921
0.000400871
0.00040281
0.000475903
0.000403467
0.000137858
0.000107914
0.000352944
0.000377769
0.000265664
0.000278226
0.000454833
0.000657898
0.000767313
0.00081767
0.000831192
0.000824554
0.000795613
0.000737564
0.000649128
0.000589259
0.000477303
0.000412661
0.000376784
0.000329884
0.000128121
8.32185e-05
0.00031687
0.000414269
0.00033858
0.000309406
0.000402157
0.000576364
0.000729963
0.000814078
0.000831366
0.000830548
0.000809745
0.000758294
0.000626479
0.000507038
0.000413327
0.000397951
0.000405725
0.000341755
0.000123579
9.03469e-05
0.00035968
0.000442229
0.000356897
0.00033487
0.000435933
0.000594985
0.000735953
0.000805934
0.000825414
0.000815441
0.000779654
0.000727156
0.000686911
0.000627452
0.000561612
0.000513571
0.000457542
0.000376236
0.000110619
9.47778e-05
0.000413195
0.000563566
0.000342806
0.0003071
0.000416315
0.000594043
0.000734564
0.000805385
0.000824976
0.000814181
0.000771177
0.000687029
0.000613725
0.000494169
0.000428923
0.000472448
0.000482151
0.000416598
0.00010667
0.000109869
0.000382096
0.000490851
0.000360693
0.000337118
0.000436956
0.000604209
0.000740196
0.000806978
0.000825664
0.000817319
0.000789911
0.000670743
0.000532367
0.000402158
0.000324133
0.000385253
0.000401166
0.000379779
0.000121656
0.000112962
0.000312008
0.00039878
0.000264721
0.000314446
0.000413574
0.000585223
0.00073337
0.00080559
0.000824487
0.000814383
0.00078801
0.00070354
0.000577309
0.000424785
0.000285583
0.000292435
0.00033617
0.000315931
0.000133256
0.000114116
0.000313531
0.000414442
0.000312369
0.00029017
0.000424128
0.000596115
0.000735502
0.000806774
0.000823998
0.000809037
0.000766021
0.000635907
0.000493986
0.00036955
0.000292815
0.000298992
0.000343658
0.000314415
0.000133991
0.000111772
0.00032044
0.000417864
0.000317525
0.000296351
0.000393861
0.00062241