/*--------------------------------*- C++ -*----------------------------------*\
  =========                 |
  \\      /  F ield         | OpenFOAM: The Open Source CFD Toolbox
   \\    /   O peration     | Website:  https://openfoam.org
    \\  /    A nd           | Version:  6
     \\/     M anipulation  |
\*---------------------------------------------------------------------------*/
FoamFile
{
    version     2.0;
    format      ascii;
    class       volScalarField;
    location    "2";
    object      nut;
}
// * * * * * * * * * * * * * * * * * * * * * * * * * * * * * * * * * * * * * //

dimensions      [0 2 -1 0 0 0 0];

internalField   nonuniform List<scalar> 
130000
(
0.00089297
0.000893788
0.000890344
0.000884881
0.000879388
0.000874099
0.000869207
0.000864994
0.000861612
0.000859112
0.000857406
0.00085629
0.000855611
0.000855231
0.000855041
0.00085504
0.00085517
0.000855277
0.000855287
0.000855154
0.000892111
0.000893625
0.000890188
0.000884506
0.000878828
0.000873463
0.00086859
0.000864452
0.000861153
0.000858744
0.000857106
0.000856042
0.000855396
0.00085504
0.000854863
0.000854863
0.000854983
0.000855033
0.000854999
0.000854842
0.000892157
0.000893471
0.000889942
0.000884131
0.000878485
0.00087319
0.000868387
0.000864318
0.00086111
0.000858759
0.000857134
0.000856081
0.000855442
0.000855098
0.000854943
0.000854915
0.000854945
0.000854983
0.000854954
0.000854783
0.000892225
0.000893436
0.000889721
0.000884027
0.000878396
0.000873111
0.000868318
0.000864264
0.00086107
0.000858731
0.000857109
0.00085606
0.000855417
0.000855071
0.000854905
0.000854867
0.000854881
0.00085492
0.000854913
0.000854823
0.000892373
0.000893527
0.000889774
0.000884008
0.000878363
0.000873067
0.000868274
0.000864228
0.000861046
0.000858719
0.000857108
0.000856065
0.000855426
0.000855079
0.000854909
0.000854863
0.000854868
0.000854899
0.000854886
0.000854796
0.000892409
0.000893486
0.000889697
0.000883796
0.000878207
0.000872973
0.000868209
0.000864182
0.000861012
0.000858697
0.000857094
0.000856064
0.000855439
0.000855095
0.000854929
0.00085488
0.000854876
0.000854891
0.000854857
0.000854753
0.000892362
0.000893426
0.000889594
0.000883763
0.000878186
0.000872944
0.000868176
0.000864151
0.000860983
0.000858676
0.00085708
0.000856056
0.000855435
0.000855093
0.000854923
0.000854865
0.000854844
0.000854829
0.000854741
0.000854626
0.000892454
0.000893504
0.000889694
0.000883893
0.000878242
0.000872953
0.000868163
0.00086413
0.000860964
0.00085866
0.000857068
0.00085605
0.000855435
0.000855098
0.000854934
0.00085489
0.000854879
0.000854863
0.000854746
0.000854638
0.00089262
0.000893509
0.000889564
0.000883872
0.00087823
0.000872937
0.00086814
0.000864105
0.000860943
0.000858644
0.000857058
0.000856047
0.000855438
0.000855105
0.000854945
0.000854909
0.00085491
0.000854917
0.00085487
0.000854763
0.00089263
0.00089359
0.000889626
0.000883919
0.000878227
0.000872925
0.000868112
0.000864076
0.000860919
0.000858629
0.00085705
0.000856045
0.000855441
0.000855112
0.000854957
0.000854928
0.000854941
0.000854975
0.000854948
0.000854838
0.000892522
0.000893621
0.000889773
0.000884024
0.000878132
0.000872822
0.000868054
0.000864041
0.000860897
0.000858616
0.000857044
0.000856046
0.000855448
0.000855122
0.000854969
0.000854942
0.000854956
0.00085499
0.000854955
0.00085484
0.000892369
0.000893467
0.000889656
0.000883974
0.000878077
0.000872825
0.000868049
0.000864033
0.000860891
0.000858613
0.000857045
0.000856052
0.000855458
0.000855134
0.000854983
0.000854957
0.000854973
0.000855009
0.00085498
0.000854869
0.000892449
0.000893509
0.000889676
0.000883923
0.000878235
0.000872885
0.000868071
0.000864039
0.000860892
0.000858615
0.000857049
0.00085606
0.00085547
0.000855149
0.000854999
0.000854974
0.000854989
0.000855022
0.000854985
0.000854871
0.000892547
0.000893543
0.000889601
0.000883891
0.000878168
0.000872856
0.000868055
0.000864027
0.000860884
0.000858609
0.000857048
0.000856063
0.000855478
0.000855159
0.00085501
0.000854987
0.000854999
0.000855031
0.000855002
0.000854897
0.00089261
0.000893526
0.000889483
0.000883817
0.000878171
0.000872859
0.00086805
0.000864014
0.000860866
0.00085859
0.000857031
0.000856049
0.000855467
0.00085515
0.000855004
0.000854983
0.000854997
0.000855029
0.000855009
0.000854935
0.00089277
0.000893674
0.000889749
0.000883978
0.000878277
0.000872916
0.000868065
0.000863994
0.000860823
0.000858531
0.000856964
0.000855978
0.000855396
0.00085508
0.000854938
0.00085493
0.000854965
0.000855027
0.000855037
0.000854986
0.000892949
0.000893925
0.00088999
0.000884203
0.000878454
0.000873027
0.000868105
0.000863974
0.000860768
0.000858459
0.000856891
0.000855905
0.000855333
0.00085502
0.00085489
0.0008549
0.000854949
0.000855011
0.000855015
0.00085495
0.000893099
0.000894168
0.000890295
0.000884518
0.000878694
0.000873186
0.000868184
0.000864006
0.000860785
0.000858485
0.000856927
0.000855956
0.000855391
0.00085509
0.000854972
0.000855006
0.000855038
0.000855087
0.000855075
0.000854976
0.000893178
0.000894262
0.000890358
0.000884539
0.000878589
0.000873063
0.000868152
0.00086404
0.000860867
0.000858584
0.000857032
0.000856058
0.000855491
0.000855178
0.000855037
0.000855018
0.00085504
0.000855082
0.000855067
0.000854967
0.000893419
0.000894496
0.000890442
0.000884464
0.000878425
0.00087298
0.000868173
0.000864077
0.000860887
0.000858594
0.000857036
0.000856058
0.00085549
0.000855173
0.00085503
0.000855007
0.000855027
0.000855066
0.000855051
0.000854948
0.000893664
0.00089475
0.000890639
0.000884662
0.000878795
0.000873235
0.000868258
0.000864091
0.000860891
0.000858589
0.000857026
0.000856045
0.000855477
0.000855157
0.000855013
0.000854988
0.000855007
0.000855041
0.000855022
0.000854907
0.000893804
0.000894831
0.000890699
0.000884735
0.000878953
0.000873263
0.000868259
0.000864098
0.000860891
0.000858581
0.000857015
0.00085603
0.000855463
0.000855141
0.000854996
0.000854969
0.000854988
0.00085502
0.000855
0.000854883
0.000893842
0.000894947
0.000890853
0.000884816
0.00087885
0.000873263
0.000868265
0.000864097
0.000860883
0.000858566
0.000856997
0.000856009
0.000855443
0.000855118
0.000854975
0.000854945
0.000854964
0.000854994
0.000854973
0.000854853
0.000893972
0.000895149
0.000891039
0.00088493
0.000878909
0.000873298
0.000868282
0.000864098
0.000860873
0.000858548
0.000856974
0.000855984
0.000855421
0.000855095
0.000854952
0.000854921
0.000854941
0.000854971
0.000854951
0.000854829
0.000894182
0.000895326
0.000891117
0.000884992
0.000878972
0.000873336
0.000868298
0.000864094
0.000860855
0.000858519
0.00085694
0.000855948
0.000855386
0.000855058
0.000854917
0.000854886
0.000854909
0.000854939
0.000854922
0.000854797
0.000894617
0.00089564
0.000891321
0.000885122
0.000879054
0.00087338
0.000868314
0.000864087
0.00086083
0.000858478
0.000856887
0.000855888
0.000855325
0.000854996
0.000854857
0.000854829
0.00085486
0.000854897
0.00085489
0.000854771
0.000894931
0.00089586
0.000891478
0.000885232
0.00087913
0.000873425
0.00086833
0.000864078
0.000860801
0.000858432
0.000856831
0.000855828
0.000855268
0.000854946
0.000854816
0.000854794
0.000854833
0.000854875
0.000854875
0.000854755
0.000895237
0.000896135
0.000891689
0.000885388
0.000879242
0.000873506
0.000868369
0.000864074
0.000860769
0.000858391
0.000856789
0.000855792
0.000855241
0.000854934
0.000854804
0.000854786
0.000854824
0.000854867
0.000854874
0.000854765
0.00089557
0.000896447
0.000891939
0.000885577
0.00087938
0.000873605
0.000868421
0.000864074
0.000860756
0.000858379
0.000856788
0.000855794
0.000855251
0.000854933
0.000854808
0.000854787
0.000854829
0.000854879
0.000854911
0.000854834
0.00089593
0.000896787
0.000892214
0.000885788
0.000879534
0.000873706
0.000868516
0.000864201
0.000860891
0.000858511
0.000856913
0.000855911
0.000855365
0.000855047
0.000854922
0.000854899
0.000854937
0.000854978
0.000854987
0.000854892
0.000896292
0.000897127
0.000892493
0.000886006
0.000879703
0.000873836
0.000868622
0.000864283
0.000860947
0.000858549
0.000856934
0.000855909
0.000855347
0.000855061
0.000854943
0.000854922
0.000854961
0.000855001
0.000855012
0.00085492
0.000896662
0.000897474
0.000892777
0.000886229
0.000879875
0.00087397
0.000868738
0.000864361
0.000860995
0.000858582
0.000856961
0.000855934
0.000855373
0.000855084
0.000854963
0.000854939
0.000854971
0.000855002
0.000855015
0.000854927
0.000897047
0.00089784
0.000893073
0.000886457
0.000880047
0.000874096
0.000868834
0.000864404
0.000861022
0.000858608
0.000856993
0.000855985
0.00085544
0.000855114
0.000854981
0.000854949
0.000854972
0.000854993
0.000855046
0.000854949
0.000897454
0.000898227
0.000893384
0.000886693
0.000880216
0.000874203
0.000868876
0.000864384
0.000861017
0.000858611
0.000857001
0.000855996
0.000855448
0.000855114
0.00085497
0.000854931
0.000854968
0.000855039
0.000855068
0.000854975
0.000897873
0.000898625
0.000893704
0.000886938
0.000880393
0.000874314
0.000868912
0.000864413
0.000861001
0.000858619
0.000857006
0.000855996
0.000855441
0.000855101
0.000854946
0.000854901
0.000854967
0.000855072
0.000855093
0.000854996
0.000898306
0.000899034
0.000894035
0.000887194
0.000880587
0.000874458
0.000869022
0.000864514
0.00086105
0.000858624
0.000856978
0.000855954
0.000855405
0.000855076
0.000854941
0.000854936
0.000855043
0.000855101
0.000855114
0.000855015
0.000898765
0.000899473
0.000894388
0.000887468
0.000880793
0.000874611
0.000869136
0.000864603
0.000861135
0.00085862
0.000856968
0.000855951
0.000855409
0.000855094
0.000854991
0.000855024
0.000855076
0.000855122
0.00085513
0.000855028
0.000899256
0.000899943
0.000894767
0.000887758
0.00088101
0.000874769
0.00086925
0.000864692
0.000861221
0.000858742
0.000857091
0.00085607
0.000855523
0.000855197
0.00085507
0.000855052
0.000855093
0.000855136
0.000855143
0.00085504
0.000899771
0.000900432
0.000895161
0.000888061
0.000881236
0.000874933
0.000869363
0.000864768
0.000861273
0.000858779
0.000857119
0.000856093
0.000855543
0.000855214
0.000855085
0.000855065
0.000855106
0.00085515
0.000855156
0.000855054
0.000900307
0.00090094
0.000895571
0.000888377
0.000881473
0.000875103
0.000869479
0.000864843
0.000861321
0.00085881
0.000857138
0.000856107
0.000855555
0.000855225
0.000855096
0.000855077
0.000855118
0.000855163
0.000855171
0.000855068
0.000900878
0.000901483
0.000896009
0.000888714
0.000881724
0.000875285
0.000869604
0.000864925
0.000861373
0.000858843
0.00085716
0.000856124
0.00085557
0.000855239
0.00085511
0.000855091
0.000855134
0.00085518
0.000855188
0.000855086
0.000901488
0.000902062
0.000896473
0.00088907
0.000881991
0.000875477
0.000869737
0.000865013
0.000861429
0.000858879
0.000857184
0.000856143
0.000855587
0.000855254
0.000855125
0.000855107
0.000855151
0.000855198
0.000855207
0.000855104
0.000902126
0.000902663
0.000896956
0.000889442
0.000882271
0.000875681
0.000869878
0.000865107
0.00086149
0.000858919
0.000857211
0.000856164
0.000855605
0.000855272
0.000855142
0.000855126
0.000855171
0.00085522
0.000855229
0.000855127
0.000902799
0.000903293
0.000897465
0.000889835
0.000882568
0.000875898
0.00087003
0.000865208
0.000861556
0.000858963
0.000857241
0.000856187
0.000855626
0.000855291
0.000855161
0.000855147
0.000855193
0.000855243
0.000855253
0.00085515
0.000903526
0.000903981
0.000898019
0.000890262
0.000882891
0.000876134
0.000870195
0.00086532
0.00086163
0.000859012
0.000857275
0.000856213
0.000855649
0.000855313
0.000855184
0.000855171
0.000855218
0.000855271
0.000855281
0.000855178
0.000904316
0.00090473
0.000898622
0.000890727
0.000883243
0.000876392
0.000870376
0.000865443
0.000861712
0.000859066
0.000857313
0.000856243
0.000855675
0.000855337
0.000855208
0.000855197
0.000855246
0.0008553
0.000855312
0.000855208
0.000905157
0.000905526
0.000899266
0.000891226
0.000883622
0.000876671
0.000870574
0.000865577
0.000861801
0.000859127
0.000857355
0.000856277
0.000855705
0.000855365
0.000855237
0.000855227
0.000855278
0.000855335
0.000855348
0.000855243
0.000906055
0.000906374
0.000899956
0.000891762
0.000884029
0.000876971
0.000870787
0.000865723
0.000861899
0.000859194
0.000857402
0.000856314
0.000855737
0.000855396
0.000855268
0.00085526
0.000855313
0.000855372
0.000855386
0.000855281
0.000907034
0.000907301
0.000900706
0.000892341
0.000884468
0.000877295
0.000871017
0.000865882
0.000862007
0.000859267
0.000857455
0.000856355
0.000855774
0.000855432
0.000855303
0.000855298
0.000855353
0.000855415
0.000855431
0.000855325
0.000908101
0.0009083
0.000901502
0.000892951
0.000884931
0.000877638
0.000871262
0.000866052
0.000862123
0.000859348
0.000857513
0.000856402
0.000855815
0.00085547
0.000855343
0.000855339
0.000855397
0.000855462
0.000855479
0.000855372
0.000909168
0.000909293
0.000902305
0.000893575
0.000885412
0.000878
0.000871525
0.000866237
0.00086225
0.000859436
0.000857577
0.000856453
0.000855861
0.000855514
0.000855387
0.000855386
0.000855447
0.000855515
0.000855534
0.000855426
0.000910284
0.000910348
0.000903165
0.000894247
0.000885932
0.000878392
0.00087181
0.000866439
0.00086239
0.000859535
0.000857649
0.00085651
0.000855912
0.000855563
0.000855436
0.000855438
0.000855502
0.000855573
0.000855594
0.000855486
0.000911548
0.000911539
0.000904127
0.000894995
0.000886507
0.000878825
0.000872126
0.000866662
0.000862546
0.000859645
0.00085773
0.000856575
0.000855969
0.000855618
0.000855492
0.000855497
0.000855565
0.00085564
0.000855662
0.000855553
0.000912924
0.000912835
0.000905177
0.00089581
0.000887134
0.000879297
0.00087247
0.000866906
0.000862717
0.000859766
0.00085782
0.000856648
0.000856034
0.00085568
0.000855555
0.000855563
0.000855634
0.000855713
0.000855738
0.000855627
0.0009144
0.000914224
0.000906303
0.000896686
0.00088781
0.000879808
0.000872845
0.000867173
0.000862906
0.000859901
0.000857921
0.00085673
0.000856107
0.00085575
0.000855626
0.000855637
0.000855713
0.000855796
0.000855824
0.000855711
0.000915986
0.000915712
0.000907512
0.000897627
0.000888537
0.000880359
0.00087325
0.000867464
0.000863112
0.000860051
0.000858034
0.000856822
0.000856189
0.000855829
0.000855706
0.000855721
0.000855801
0.000855889
0.000855919
0.000855804
0.000917697
0.00091732
0.000908816
0.000898643
0.000889323
0.000880956
0.000873692
0.000867783
0.00086334
0.000860217
0.00085816
0.000856925
0.000856282
0.000855918
0.000855797
0.000855815
0.000855901
0.000855994
0.000856027
0.00085591
0.000919546
0.000919054
0.000910224
0.000899738
0.000890171
0.000881602
0.000874171
0.00086813
0.00086359
0.0008604
0.000858301
0.000857042
0.000856387
0.00085602
0.0008559
0.000855922
0.000856013
0.000856112
0.000856148
0.000856029
0.000921539
0.000920919
0.000911737
0.000900919
0.000891087
0.000882303
0.000874693
0.000868511
0.000863867
0.000860605
0.000858459
0.000857174
0.000856506
0.000856134
0.000856016
0.000856043
0.000856141
0.000856245
0.000856285
0.000856162
0.0009237
0.000922936
0.000913376
0.000902197
0.000892081
0.000883065
0.000875264
0.000868929
0.000864173
0.000860833
0.000858638
0.000857323
0.000856641
0.000856265
0.000856148
0.000856181
0.000856285
0.000856396
0.00085644
0.000856313
0.000926052
0.000925137
0.000915161
0.00090359
0.000893164
0.000883898
0.00087589
0.000869391
0.000864513
0.000861089
0.000858839
0.000857492
0.000856794
0.000856414
0.000856299
0.000856338
0.000856449
0.000856567
0.000856615
0.000856484
0.00092862
0.000927535
0.000917108
0.000905108
0.000894348
0.00088481
0.000876579
0.000869902
0.000864892
0.000861376
0.000859068
0.000857685
0.00085697
0.000856585
0.000856472
0.000856517
0.000856637
0.000856762
0.000856814
0.000856679
0.00093141
0.000930136
0.000919221
0.000906759
0.000895637
0.000885807
0.000877336
0.000870468
0.000865314
0.000861699
0.000859326
0.000857905
0.000857171
0.000856781
0.000856671
0.000856722
0.000856851
0.000856984
0.000857041
0.0008569
0.000934455
0.000932967
0.000921522
0.000908558
0.000897044
0.0008869
0.00087817
0.000871094
0.000865786
0.000862063
0.000859621
0.000858158
0.000857403
0.000857006
0.000856899
0.000856957
0.000857096
0.000857238
0.0008573
0.000857153
0.000937786
0.000936067
0.000924039
0.000910527
0.000898586
0.0008881
0.00087909
0.000871789
0.000866313
0.000862473
0.000859955
0.000858446
0.000857668
0.000857265
0.000857161
0.000857228
0.000857377
0.000857529
0.000857596
0.000857441
0.000941447
0.000939466
0.0009268
0.000912685
0.000900279
0.000889423
0.000880108
0.000872564
0.000866906
0.000862939
0.000860338
0.000858778
0.000857974
0.000857565
0.000857464
0.00085754
0.000857702
0.000857865
0.000857937
0.000857773
0.000945463
0.000943191
0.000929826
0.000915055
0.000902141
0.000890883
0.000881239
0.00087343
0.000867574
0.000863467
0.000860776
0.000859161
0.000858328
0.000857911
0.000857815
0.000857901
0.000858076
0.000858251
0.000858328
0.000858154
0.000949899
0.000947297
0.000933162
0.000917669
0.0009042
0.000892502
0.000882499
0.000874403
0.00086833
0.000864071
0.000861281
0.000859604
0.00085874
0.000858315
0.000858223
0.000858321
0.000858511
0.000858699
0.000858782
0.000858596
0.000954812
0.000951849
0.00093686
0.000920568
0.000906485
0.000894306
0.000883911
0.000875499
0.000869189
0.000864763
0.000861863
0.000860118
0.000859219
0.000858785
0.000858699
0.000858809
0.000859015
0.000859217
0.000859306
0.000859105
0.000960276
0.000956905
0.00094097
0.000923793
0.000909033
0.000896324
0.000885499
0.00087674
0.00087017
0.00086556
0.00086254
0.000860718
0.000859779
0.000859337
0.000859256
0.000859381
0.000859605
0.000859823
0.000859918
0.0008597
0.000966351
0.000962522
0.000945541
0.000927385
0.000911875
0.000898585
0.000887288
0.00087815
0.000871293
0.00086648
0.000863325
0.000861418
0.000860433
0.000859982
0.000859909
0.00086005
0.000860295
0.00086053
0.000860631
0.000860392
0.000973142
0.000968792
0.000950647
0.000931403
0.000915062
0.00090113
0.000889314
0.000879759
0.000872586
0.000867548
0.000864244
0.000862239
0.000861195
0.000860744
0.000860681
0.000860841
0.000861109
0.000861363
0.000861469
0.000861206
0.000980753
0.000975824
0.000956377
0.00093592
0.00091865
0.000904006
0.000891618
0.000881603
0.000874083
0.000868798
0.000865334
0.00086323
0.000862132
0.000861659
0.0008616
0.000861778
0.00086207
0.000862344
0.000862454
0.000862161
0.000989325
0.000983737
0.000962835
0.000941019
0.00092271
0.000907276
0.000894253
0.000883729
0.000875825
0.000870266
0.000866623
0.000864413
0.000863253
0.000862753
0.000862697
0.000862895
0.000863213
0.00086351
0.000863622
0.000863293
0.000999003
0.000992674
0.000970139
0.0009468
0.000927326
0.00091101
0.000897282
0.000886194
0.000877861
0.000871997
0.000868155
0.000865822
0.000864595
0.000864063
0.000864011
0.000864228
0.000864575
0.000864894
0.000865008
0.000864632
0.00101001
0.00100283
0.000978459
0.000953402
0.000932613
0.000915306
0.000900792
0.000889072
0.000880261
0.000874055
0.000869986
0.000867517
0.000866212
0.000865644
0.000865593
0.000865833
0.00086621
0.000866555
0.000866666
0.000866233
0.00102256
0.00101444
0.000987987
0.000960985
0.000938706
0.000920281
0.000904882
0.000892456
0.000883106
0.000876514
0.000872189
0.000869563
0.00086817
0.00086756
0.000867509
0.000867771
0.00086818
0.00086855
0.000868653
0.00086815
0.00103697
0.00102777
0.000998966
0.000969755
0.000945779
0.000926084
0.000909687
0.000896463
0.000886507
0.000879478
0.000874862
0.000872055
0.000870562
0.000869901
0.000869846
0.000870131
0.000870574
0.000870969
0.00087106
0.000870468
0.00105357
0.00104316
0.00101168
0.000979958
0.000954044
0.000932904
0.000915374
0.000901248
0.000890602
0.00088308
0.000878129
0.000875113
0.000873504
0.000872779
0.000872715
0.000873021
0.000873499
0.000873918
0.000873988
0.000873288
0.00107283
0.00106104
0.00102653
0.000991931
0.000963791
0.000940992
0.00092217
0.000907017
0.000895587
0.000887501
0.000882164
0.000878903
0.000877156
0.000876355
0.000876275
0.0008766
0.000877112
0.000877556
0.000877597
0.000876765
0.00109529
0.00108196
0.00104399
0.0010061
0.000975387
0.000950677
0.000930373
0.000914048
0.000901722
0.000892984
0.0008872
0.000883649
0.000881741
0.000880846
0.000880739
0.000881077
0.000881625
0.000882093
0.000882098
0.000881102
0.00112167
0.00110662
0.00106469
0.00102301
0.000989327
0.0009624
0.000940387
0.000922719
0.000909361
0.000899871
0.000893569
0.000889677
0.000887574
0.000886569
0.00088642
0.000886767
0.000887352
0.000887844
0.000887784
0.000886584
0.00115285
0.00113588
0.00108944
0.0010434
0.00100627
0.000976757
0.000952761
0.000933543
0.000918997
0.000908644
0.000901744
0.000897446
0.000895095
0.000893998
0.000893771
0.00089413
0.000894748
0.000895233
0.000895078
0.000893599
0.00119001
0.00117093
0.00111933
0.00106827
0.00102711
0.000994575
0.000968265
0.000947252
0.000931339
0.000919996
0.000912415
0.000907656
0.000904998
0.000903763
0.000903494
0.00090386
0.000904483
0.000904928
0.000904605
0.000902721
0.00123461
0.00121324
0.00115578
0.00109892
0.00105308
0.001017
0.000987981
0.000964882
0.000947396
0.000934921
0.000926564
0.000921294
0.000918308
0.000916918
0.000916624
0.000916971
0.000917536
0.000917852
0.000917239
0.00091479
0.00128857
0.00126478
0.00120066
0.00113716
0.00108588
0.00104566
0.00101347
0.000987944
0.00096865
0.000954893
0.000945671
0.000939853
0.000936537
0.00093498
0.000934674
0.000934965
0.000935368
0.000935432
0.000934358
0.000931111
0.00135438
0.00132811
0.00125652
0.00118547
0.00112793
0.00108288
0.001047
0.00101865
0.000997285
0.000982084
0.000971914
0.00096552
0.000961885
0.000960149
0.000959796
0.000960049
0.000960164
0.000959814
0.00095805
0.000953675
0.00143534
0.00140669
0.00132681
0.00124731
0.00118267
0.00113207
0.0010919
0.00106028
0.00103654
0.00101972
0.00100855
0.00100159
0.000997631
0.000995637
0.000994978
0.000995321
0.000995209
0.000994259
0.000991502
0.000985529
0.00153574
0.00150507
0.00141623
0.00132746
0.00125495
0.0011981
0.00115299
0.00111757
0.00109108
0.00107248
0.00106028
0.00105278
0.00104848
0.00104622
0.00104536
0.00104578
0.00104532
0.00104348
0.00103935
0.00103116
0.00166136
0.00162946
0.00153123
0.00143262
0.00135157
0.00128768
0.00123685
0.00119699
0.00116727
0.0011466
0.00113335
0.00112535
0.00112079
0.00111833
0.00111724
0.00111773
0.00111681
0.00111383
0.00110798
0.00109693
0.00181997
0.00178831
0.00168066
0.00157178
0.00148141
0.00140928
0.00135145
0.00130603
0.00127234
0.00124919
0.00123478
0.00122653
0.00122239
0.00122028
0.00121909
0.00121943
0.0012176
0.00121384
0.00120616
0.00119161
0.00202213
0.00199303
0.00187619
0.0017563
0.00165483
0.00157199
0.00150444
0.00145111
0.00141183
0.00138521
0.0013698
0.00136202
0.00136072
0.00136078
0.00136114
0.00136062
0.0013586
0.00135462
0.00134512
0.00132654
0.00228163
0.00225827
0.00213186
0.00199823
0.00188077
0.00178121
0.00169797
0.00163175
0.00158402
0.00155436
0.00153956
0.00153663
0.00153898
0.00154389
0.00154902
0.00155244
0.00155257
0.0015478
0.00153595
0.00151306
0.002614
0.00259952
0.00245973
0.00230374
0.00215831
0.00202925
0.00191935
0.00183346
0.00177402
0.00174215
0.00173082
0.00173414
0.00174602
0.00176156
0.00177678
0.00178842
0.00179381
0.00179097
0.00177815
0.00175165
0.00302605
0.00301945
0.00285244
0.00265313
0.00245548
0.00227537
0.00212326
0.00200908
0.00193496
0.00190167
0.00189965
0.0019187
0.00195013
0.00198562
0.00201827
0.00204265
0.00205473
0.00205276
0.00203676
0.00200553
0.00348025
0.00346149
0.00323614
0.00296026
0.00267485
0.00241998
0.00221297
0.00206493
0.00197689
0.00194789
0.00196577
0.00201537
0.00208245
0.00215094
0.00220693
0.00224226
0.00225206
0.00223676
0.0022008
0.00214846
0.00384029
0.00376326
0.00343305
0.00303697
0.00268054
0.00239192
0.00217459
0.00202899
0.00194794
0.00192449
0.00194581
0.00200143
0.0020784
0.00215978
0.00222184
0.00224555
0.0022226
0.00215757
0.00206452
0.00194414
0.00370166
0.00358191
0.00319782
0.00275599
0.00235705
0.00205661
0.00184974
0.00171981
0.00165414
0.00164381
0.00167738
0.00174516
0.00183093
0.00191139
0.00195796
0.00194702
0.00187013
0.00173941
0.00158011
0.00135219
0.00235855
0.00231668
0.00197187
0.00164089
0.0014047
0.00127751
0.00121566
0.00118324
0.00117058
0.00117892
0.00120722
0.00124985
0.00129216
0.00131108
0.00128482
0.00120804
0.00109158
0.000948283
0.00079453
0.000627526
0.000698184
0.000650968
0.000532182
0.000489402
0.000592778
0.000761822
0.000859558
0.000886504
0.000892431
0.00089824
0.000907366
0.000913966
0.000898372
0.000824216
0.00067883
0.000521192
0.00041326
0.000361609
0.000320808
0.000273156
0.000858069
0.000857984
0.000858161
0.000857958
0.0008575
0.000856926
0.000856355
0.00085587
0.000855513
0.000855296
0.000855215
0.000855258
0.00085542
0.000855691
0.000856059
0.000856495
0.000856958
0.000857379
0.000857627
0.000857536
0.00085772
0.000857771
0.000857949
0.000857727
0.000857258
0.000856681
0.000856114
0.000855637
0.000855289
0.000855078
0.000855002
0.000855047
0.000855206
0.000855471
0.000855823
0.000856231
0.000856645
0.000857
0.000857194
0.0008571
0.000857604
0.000857649
0.000857797
0.00085756
0.000857082
0.000856497
0.000855927
0.000855448
0.0008551
0.000854889
0.000854812
0.000854854
0.000855011
0.000855271
0.000855621
0.00085603
0.000856452
0.000856824
0.000857043
0.000856944
0.000857479
0.000857467
0.00085762
0.000857379
0.000856898
0.000856311
0.000855741
0.000855262
0.000854917
0.000854707
0.000854632
0.000854674
0.000854829
0.000855086
0.000855432
0.000855835
0.000856249
0.000856618
0.000856867
0.00085686
0.000857285
0.000857369
0.000857554
0.000857325
0.000856876
0.000856304
0.000855743
0.000855273
0.000854933
0.000854727
0.000854655
0.000854696
0.00085485
0.000855102
0.000855442
0.000855834
0.000856239
0.000856555
0.000856778
0.000856781
0.000857244
0.000857363
0.000857544
0.000857341
0.000856979
0.000856402
0.000855853
0.00085539
0.000855056
0.000854851
0.000854779
0.000854817
0.000854965
0.000855208
0.000855537
0.000855918
0.000856315
0.000856554
0.000856752
0.000856731
0.000857316
0.000857342
0.000857533
0.000857355
0.000856912
0.000856355
0.000855812
0.000855352
0.000855019
0.000854815
0.000854745
0.000854783
0.000854932
0.000855175
0.000855501
0.000855875
0.000856256
0.000856574
0.000856721
0.000856662
0.000857375
0.000857355
0.000857534
0.000857312
0.000856859
0.000856295
0.000855751
0.000855288
0.000854956
0.000854752
0.000854684
0.000854723
0.000854874
0.000855119
0.000855449
0.000855832
0.000856231
0.000856586
0.00085681
0.000856748
0.000857343
0.000857311
0.000857466
0.000857233
0.00085677
0.000856194
0.000855641
0.000855172
0.000854837
0.000854632
0.000854565
0.000854606
0.00085476
0.000855009
0.000855346
0.000855738
0.000856153
0.000856527
0.000856771
0.000856729
0.00085728
0.000857288
0.000857458
0.000857219
0.000856747
0.000856167
0.000855614
0.000855147
0.000854815
0.000854614
0.000854551
0.000854595
0.000854752
0.000855003
0.00085534
0.00085573
0.000856143
0.000856499
0.000856743
0.000856691
0.000857373
0.000857364
0.000857548
0.000857328
0.000856878
0.000856316
0.000855776
0.000855316
0.000854987
0.000854786
0.000854722
0.000854763
0.000854913
0.000855153
0.000855472
0.000855832
0.000856191
0.0008565
0.000856702
0.000856649
0.000857316
0.00085739
0.000857579
0.000857361
0.00085691
0.000856346
0.000855804
0.000855343
0.000855013
0.000854811
0.000854748
0.000854788
0.000854938
0.000855175
0.000855487
0.000855829
0.000856142
0.000856452
0.000856627
0.000856569
0.000857368
0.000857439
0.000857625
0.000857402
0.000856948
0.000856381
0.000855837
0.000855374
0.000855043
0.000854841
0.000854779
0.00085482
0.00085497
0.000855211
0.000855532
0.000855895
0.000856262
0.000856569
0.00085671
0.000856616
0.000857445
0.000857498
0.000857673
0.000857444
0.000856987
0.000856417
0.000855872
0.000855407
0.000855076
0.000854874
0.000854812
0.000854853
0.000855003
0.000855243
0.000855564
0.000855929
0.0008563
0.000856614
0.000856777
0.00085665
0.000857572
0.000857543
0.00085771
0.000857478
0.00085702
0.000856449
0.000855902
0.000855436
0.000855103
0.000854901
0.000854838
0.000854878
0.000855026
0.000855265
0.000855584
0.000855948
0.00085632
0.00085664
0.000856814
0.000856743
0.00085755
0.000857536
0.000857699
0.000857474
0.000857021
0.000856451
0.000855902
0.000855434
0.000855099
0.000854895
0.000854831
0.000854867
0.000855012
0.000855245
0.000855558
0.000855919
0.000856293
0.00085663
0.000856847
0.000856807
0.000857494
0.000857513
0.00085768
0.000857453
0.000857001
0.000856428
0.000855875
0.000855402
0.000855064
0.000854857
0.000854793
0.000854827
0.00085497
0.000855198
0.000855513
0.00085588
0.000856267
0.00085663
0.000856847
0.00085681
0.000857476
0.000857512
0.00085768
0.000857438
0.000856965
0.000856373
0.000855811
0.000855332
0.000854995
0.000854788
0.00085473
0.000854769
0.000854924
0.000855167
0.000855518
0.000855944
0.000856371
0.000856806
0.000857004
0.00085696
0.000857507
0.000857535
0.000857706
0.00085744
0.000856958
0.000856366
0.000855805
0.000855334
0.000855
0.000854802
0.000854748
0.000854798
0.000854962
0.000855228
0.000855603
0.000856084
0.000856444
0.000856782
0.000857001
0.000856964
0.000857499
0.000857525
0.000857739
0.000857525
0.000857066
0.000856492
0.000855944
0.00085548
0.000855149
0.000854952
0.000854897
0.000854943
0.000855095
0.00085534
0.000855665
0.000856038
0.000856418
0.000856762
0.000856987
0.000856957
0.000857535
0.000857547
0.000857766
0.00085753
0.00085706
0.000856483
0.000855932
0.000855467
0.000855135
0.000854939
0.000854885
0.00085493
0.000855082
0.000855323
0.000855645
0.000856013
0.000856395
0.00085674
0.000856967
0.000856939
0.000857625
0.000857612
0.000857768
0.000857521
0.000857044
0.000856464
0.00085591
0.000855445
0.000855112
0.000854916
0.000854863
0.000854909
0.000855061
0.000855304
0.000855625
0.000855994
0.000856376
0.000856722
0.000856951
0.000856925
0.000857605
0.000857603
0.000857756
0.000857505
0.000857025
0.000856441
0.000855885
0.000855419
0.000855085
0.00085489
0.000854838
0.000854885
0.000855038
0.000855279
0.000855602
0.00085597
0.000856353
0.000856698
0.000856928
0.000856902
0.000857624
0.000857605
0.000857751
0.000857494
0.000857006
0.000856418
0.000855858
0.00085539
0.000855054
0.00085486
0.00085481
0.000854857
0.000855012
0.000855255
0.000855579
0.000855949
0.000856334
0.000856681
0.000856913
0.000856887
0.000857626
0.000857604
0.000857741
0.000857473
0.000856973
0.000856376
0.000855808
0.000855335
0.000854997
0.000854803