/*--------------------------------*- C++ -*----------------------------------*\
  =========                 |
  \\      /  F ield         | OpenFOAM: The Open Source CFD Toolbox
   \\    /   O peration     | Website:  https://openfoam.org
    \\  /    A nd           | Version:  6
     \\/     M anipulation  |
\*---------------------------------------------------------------------------*/
FoamFile
{
    version     2.0;
    format      ascii;
    class       volScalarField;
    location    "2";
    object      p;
}
// * * * * * * * * * * * * * * * * * * * * * * * * * * * * * * * * * * * * * //

dimensions      [0 2 -2 0 0 0 0];

internalField   nonuniform List<scalar> 
10000
(
0.22118
0.281358
0.343035
0.422824
0.480851
0.509008
0.514521
0.511174
0.508445
0.509717
0.515919
0.526616
0.540853
0.552705
0.551402
0.523605
0.462395
0.374989
0.308142
0.252865
1.21321
1.28043
1.36738
1.48077
1.57671
1.63848
1.66873
1.6819
1.68999
1.69957
1.71293
1.73134
1.75324
1.77164
1.77268
1.7388
1.66337
1.55769
1.46084
1.37273
2.73457
2.74909
2.78515
2.83066
2.87816
2.92207
2.95701
2.98165
2.99858
3.01054
3.02018
3.0276
3.03322
3.03483
3.03133
3.0214
3.0057
2.9838
2.94791
2.90835
4.18019
4.20272
4.22514
4.24042
4.24955
4.25328
4.25461
4.25591
4.25789
4.25995
4.26109
4.26035
4.2568
4.24963
4.23928
4.22646
4.21292
4.19932
4.18819
4.18106
5.52592
5.54307
5.54887
5.5446
5.53719
5.52891
5.52253
5.51908
5.51797
5.517
5.51521
5.5106
5.50314
5.49231
5.47973
5.46775
5.45878
5.45367
5.45231
5.45365
6.69805
6.69638
6.69771
6.70601
6.71884
6.73402
6.74894
6.76128
6.77014
6.77516
6.7761
6.77251
6.76419
6.75113
6.73514
6.71917
6.70733
6.70212
6.70456
6.71132
7.88304
7.86801
7.87089
7.8922
7.92284
7.9582
7.99161
8.01829
8.03737
8.04915
8.05521
8.0553
8.05023
8.03947
8.024
8.00555
7.98749
7.97364
7.97225
7.98348
9.20338
9.18928
9.19225
9.20987
9.23538
9.26516
9.29389
9.31768
9.33552
9.34805
9.35624
9.36079
9.3625
9.36148
9.35833
9.35327
9.34735
9.34153
9.33721
9.33598
10.6151
10.6148
10.6199
10.6267
10.6334
10.6398
10.6464
10.6531
10.6599
10.6662
10.6723
10.6778
10.6833
10.6887
10.6937
10.6972
10.6984
10.6968
10.6931
10.6894
12.0347
12.0467
12.0467
12.035
12.02
12.0055
11.9946
11.9885
11.9864
11.9871
11.9898
11.9942
12.0007
12.0095
12.0206
12.0322
12.0418
12.0465
12.0443
12.0378
13.3384
13.3429
13.3401
13.333
13.3247
13.3168
13.3105
13.3059
13.3033
13.3017
13.3016
13.3025
13.3052
13.3104
13.3193
13.3324
13.3487
13.3641
13.3686
13.3598
14.6404
14.6441
14.6433
14.6398
14.6354
14.6307
14.6262
14.622
14.6182
14.6146
14.6108
14.6063
14.601
14.5944
14.5876
14.5823
14.5808
14.5842
14.5919
14.5993
15.9476
15.953
15.9553
15.9551
15.953
15.9495
15.9452
15.9406
15.936
15.9311
15.9259
15.9195
15.9114
15.9008
15.8877
15.8729
15.8588
15.8484
15.8493
15.8615
17.2636
17.2703
17.2776
17.2827
17.2827
17.278
17.2708
17.2638
17.2579
17.253
17.2486
17.2443
17.2399
17.235
17.2298
17.2243
17.2187
17.2138
17.2105
17.21
18.5991
18.6037
18.6037
18.5982
18.5915
18.5854
18.5808
18.5777
18.5759
18.5745
18.5737
18.5731
18.573
18.5734
18.5741
18.5744
18.5737
18.5716
18.5684
18.5655
19.8659
19.8504
19.8448
19.8498
19.8593
19.8707
19.881
19.8888
19.894
19.8978
19.9006
19.9034
19.9068
19.9111
19.9167
19.9228
19.928
19.9305
19.9286
19.9237
21.2118
21.2112
21.2098
21.2089
21.2097
21.2123
21.2157
21.2196
21.2236
21.2274
21.2311
21.2347
21.2384
21.2427
21.2479
21.2546
21.2629
21.2719
21.2748
21.2691
22.5188
22.5228
22.5259
22.5298
22.5343
22.5396
22.5453
22.5509
22.556
22.5609
22.5651
22.5688
22.5718
22.5731
22.572
22.5676
22.5602
22.5525
22.5524
22.5617
23.8444
23.8465
23.8523
23.8601
23.8676
23.875
23.8817
23.888
23.8936
23.8988
23.904
23.9096
23.916
23.9236
23.9323
23.9404
23.946
23.9473
23.9438
23.9388
25.2209
25.2196
25.2197
25.2203
25.2217
25.2243
25.2279
25.232
25.236
25.24
25.2439
25.248
25.2529
25.2593
25.2682
25.2799
25.2935
25.3061
25.309
25.2999
26.5953
26.5955
26.5914
26.5855
26.5809
26.5788
26.5787
26.5799
26.5816
26.5833
26.5849
26.586
26.5859
26.5843
26.5811
26.5773
26.5749
26.5759
26.5812
26.5876
27.9409
27.9449
27.945
27.9423
27.9386
27.9353
27.9328
27.9313
27.9303
27.9304
27.9308
27.9316
27.9321
27.9309
27.9268
27.9187
27.9071
27.8956
27.8935
27.9033
29.3122
29.3189
29.3233
29.3225
29.316
29.3057
29.2945
29.2853
29.2792
29.2762
29.2763
29.2794
29.2853
29.2938
29.3034
29.3115
29.3157
29.3145
29.3086
29.3024
30.7117
30.7215
30.7195
30.7042
30.6832
30.6604
30.6401
30.6249
30.6149
30.6101
30.6094
30.6129
30.6207
30.6327
30.6484
30.6659
30.6823
30.6942
30.694
30.6823
32.0114
32.011
32.002
31.9884
31.9738
31.9594
31.9464
31.9361
31.929
31.9251
31.9244
31.9268
31.932
31.9396
31.9486
31.9579
31.966
31.9721
31.9758
31.9766
33.2558
33.2591
33.2582
33.2558
33.2517
33.2459
33.2393
33.2335
33.229
33.2267
33.226
33.2274
33.2304
33.235
33.2407
33.2467
33.2523
33.2568
33.2602
33.2623
34.4943
34.4963
34.5005
34.5072
34.5128
34.5164
34.5179
34.5184
34.5183
34.5182
34.5181
34.5182
34.5185
34.5192
34.5207
34.5232
34.5266
34.5306
34.5344
34.5371
35.7589
35.7538
35.7532
35.7584
35.7675
35.7792
35.7903
35.7991
35.8047
35.8077
35.808
35.8065
35.803
35.7983
35.7934
35.79
35.7894
35.792
35.7967
35.8009
37.0276
37.0156
37.0151
37.0269
37.0441
37.0634
37.0807
37.0936
37.1015
37.1052
37.1051
37.1015
37.0943
37.0839
37.0713
37.0591
37.0502
37.0473
37.0516
37.0595
38.3769
38.3772
38.3802
38.3852
38.3915
38.3989
38.4059
38.4118
38.4153
38.4167
38.4153
38.4111
38.4034
38.3918
38.3764
38.3582
38.3398
38.3255
38.324
38.3356
39.7282
39.7302
39.7317
39.7325
39.733
39.7341
39.7352
39.7363
39.7368
39.7366
39.7355
39.7335
39.7306
39.7265
39.7209
39.7139
39.7056
39.6976
39.6922
39.691
41.0787
41.0838
41.0864
41.0858
41.082
41.0757
41.0689
41.0636
41.0597
41.0576
41.0564
41.0565
41.0575
41.0593
41.0613
41.0618
41.0597
41.0551
41.0497
41.0459
42.4076
42.4138
42.4119
42.4028
42.3929
42.3845
42.3783
42.3743
42.3716
42.37
42.3695
42.3706
42.3738
42.3796
42.3875
42.3959
42.4019
42.4033
42.3991
42.3924
43.6741
43.6623
43.6571
43.6594
43.6645
43.6705
43.675
43.6769
43.6763
43.6747
43.6726
43.6714
43.6714
43.6739
43.6801
43.69
43.7027
43.7147
43.7171
43.7079
45.0241
45.029
45.0323
45.0317
45.0264
45.017
45.0058
44.9953
44.9862
44.9782
44.9707
44.963
44.9545
44.9451
44.9354
44.9272
44.9226
44.923
44.9287
44.9355
46.346
46.3573
46.3589
46.3506
46.3375
46.3219
46.3068
46.2943
46.2838
46.275
46.266
46.2565
46.245
46.2311
46.2147
46.1967
46.1795
46.1666
46.166
46.1777
47.5731
47.567
47.5621
47.5609
47.5626
47.5663
47.5695
47.5708
47.5698
47.5666
47.5617
47.5552
47.5473
47.5382
47.5282
47.5184
47.5091
47.5017
47.4974
47.4969
48.8136
48.8008
48.7987
48.8078
48.8216
48.8365
48.849
48.8572
48.8611
48.8619
48.8599
48.8567
48.8517
48.8461
48.8399
48.8333
48.827
48.8215
48.8176
48.8156
50.137
50.1371
50.1395
50.1435
50.1484
50.1538
50.1585
50.162
50.1637
50.1639
50.1627
50.1606
50.1579
50.1549
50.1515
50.1478
50.1435
50.139
50.1352
50.133
51.4634
51.4654
51.4672
51.4682
51.4687
51.4693
51.4696
51.4695
51.4687
51.4676
51.4656
51.4641
51.4623
51.4614
51.4608
51.46
51.4584
51.4554
51.4516
51.4486
52.789
52.7946
52.7985
52.7995
52.7972
52.7919
52.7854
52.7796
52.7749
52.7711
52.7676
52.7644
52.7616
52.7602
52.7602
52.7623
52.7648
52.7661
52.7641
52.7593
54.0915
54.0984
54.0987
54.0929
54.0865
54.0812
54.0773
54.0747
54.0722
54.0696
54.0657
54.0613
54.0554
54.0493
54.044
54.0419
54.0446
54.0514
54.0549
54.0503
55.3312
55.3189
55.3155
55.3226
55.3341
55.3473
55.3586
55.3663
55.37
55.3706
55.3684
55.3634
55.3552
55.343
55.3263
55.3068
55.2875
55.2734
55.2736
55.2868
56.6628
56.6619
56.6635
56.6661
56.6695
56.6735
56.6771
56.6799
56.681
56.6815
56.6806
56.6797
56.6776
56.6749
56.6694
56.6595
56.6448
56.6275
56.6175
56.6209
58.0086
58.0093
58.0092
58.0073
58.0048
58.0028
58.0009
57.9991
57.9972
57.9958
57.9952
57.9963
58.0005
58.0089
58.0212
58.0359
58.0483
58.054
58.046
58.0283
59.3665
59.3711
59.3726
59.3686
59.3599
59.3478
59.3348
59.3234
59.314
59.3073
59.3022
59.2998
59.2992
59.3027
59.3105
59.3233
59.3395
59.3546
59.3577
59.3456
60.7105
60.7207
60.7209
60.7095
60.6921
60.6718
60.6521
60.6358
60.6228
60.6127
60.604
60.5959
60.5874
60.5786
60.5694
60.5623
60.559
60.5609
60.5675
60.5744
61.9703
61.9657
61.9607
61.9558
61.9499
61.9428
61.9349
61.9273
61.9199
61.9133
61.9061
61.8988
61.8893
61.8778
61.8631
61.8466
61.8306
61.8187
61.8187
61.8307
63.2332
63.2233
63.2157
63.2117
63.2112
63.2136
63.2162
63.2181
63.2183
63.2176
63.2159
63.2137
63.2108
63.2074
63.2024
63.1967
63.1901
63.1841
63.18
63.1793
64.5135
64.5021
64.495
64.4953
64.5004
64.5082
64.5158
64.5217
64.5255
64.5287
64.5313
64.5351
64.5389
64.5439
64.5483
64.5511
64.5513
64.5487
64.5446
64.5412
65.8391
65.8499
65.8563
65.8586
65.8573
65.8532
65.8483
65.8453
65.8446
65.8466
65.8507
65.8573
65.8664
65.8785
65.8919
65.9054
65.9154
65.9196
65.9168
65.9102
67.1529
67.1692
67.1775
67.177
67.1718
67.1646
67.1583
67.1554
67.1556
67.1589
67.1642
67.1723
67.1823
67.1961
67.2127
67.2324
67.2526
67.2694
67.2732
67.2633
68.4186
68.4147
68.4128
68.415
68.4211
68.4307
68.4412
68.4512
68.4598
68.4677
68.475
68.4819
68.4882
68.4945
68.5002
68.5073
68.516
68.526
68.5348
68.5391
69.6955
69.6851
69.6862
69.6982
69.7147
69.7328
69.7496
69.7637
69.7752
69.7851
69.7932
69.8004
69.805
69.8076
69.807
69.8055
69.8053
69.8086
69.8161
69.8249
71.0525
71.0591
71.0677
71.0764
71.0834
71.0884
71.0931
71.0993
71.1069
71.1159
71.1251
71.1339
71.1413
71.1463
71.147
71.1437
71.1368
71.1297
71.1308
71.142
72.3825
72.3909
72.3947
72.395
72.3972
72.4027
72.4117
72.4234
72.4362
72.4497
72.4633
72.4776
72.4922
72.5082
72.5238
72.5381
72.5486
72.5535
72.5518
72.5471
73.6468
73.6323
73.6295
73.6413
73.6631
73.692
73.7219
73.7486
73.7707
73.7894
73.806
73.8219
73.8379
73.8559
73.8758
73.8982
73.921
73.9402
73.9456
73.936
75.0169
75.0101
75.0158
75.0322
75.0529
75.0751
75.0963
75.1151
75.1313
75.1454
75.1578
75.1689
75.1783
75.1873
75.1954
75.2049
75.2162
75.2286
75.2389
75.2434
76.4789
76.4922
76.5001
76.5005
76.4988
76.4976
76.4988
76.5029
76.5089
76.5158
76.5223
76.5278
76.5312
76.5325
76.5316
76.5306
76.532
76.5375
76.5466
76.5555
77.8842
77.8893
77.8911
77.8894
77.8869
77.8853
77.8853
77.8869
77.8898
77.8933
77.897
77.9
77.9014
77.9009
77.897
77.891
77.8838
77.8781
77.8807
77.8922
79.2903
79.2959
79.299
79.2984
79.2944
79.288
79.2818
79.2778
79.2764
79.2772
79.2795
79.283
79.287
79.2921
79.2977
79.3039
79.3101
79.3143
79.3142
79.3108
80.684
80.6906
80.6891
80.6802
80.6708
80.6633
80.6587
80.6567
80.6568
80.6582
80.6608
80.664
80.6682
80.6736
80.6801
80.6892
80.7008
80.7133
80.7183
80.7125
82.0253
82.0133
82.0081
82.0104
82.0159
82.0228
82.0291
82.0333
82.0361
82.0383
82.0408
82.0437
82.0465
82.0489
82.0496
82.0478
82.0443
82.0406
82.0427
82.0518
83.4618
83.4666
83.4692
83.4667
83.4599
83.4497
83.439
83.43
83.4241
83.4208
83.4203
83.4219
83.4265
83.434
83.4436
83.455
83.465
83.4709
83.4696
83.4641
84.8805
84.8926
84.8931
84.8807
84.8628
84.8423
84.8234
84.8085
84.798
84.791
84.7871
84.7858
84.7867
84.7911
84.7998
84.8132
84.8311
84.8486
84.8541
84.8445
86.2049
86.2045
86.2016
86.1969
86.1902
86.1812
86.1715
86.1622
86.1544
86.1475
86.1417
86.1353
86.129
86.1219
86.1149
86.1108
86.1112
86.1169
86.1254
86.1319
87.5112
87.5093
87.5091
87.5104
87.5113
87.5099
87.5072
87.5035
87.4999
87.4956
87.4906
87.4844
87.4755
87.4643
87.451
87.4365
87.4241
87.4158
87.4177
87.4288
88.7969
88.79
88.7877
88.792
88.8012
88.813
88.8246
88.8334
88.8392
88.8412
88.8407
88.8366
88.831
88.8236
88.8154
88.8087
88.8039
88.8009
88.7988
88.7974
90.091
90.0744
90.0706
90.0808
90.1007
90.1261
90.1511
90.1705
90.1833
90.1901
90.1923
90.1913
90.1868
90.1807
90.174
90.1679
90.1643
90.1625
90.1607
90.158
91.48
91.4737
91.4778
91.4903
91.5051
91.5201
91.533
91.5425
91.5487
91.5515
91.552
91.5489
91.5443
91.5373
91.5293
91.5224
91.5174
91.5148
91.513
91.5106
92.9411
92.9599
92.97
92.9671
92.9572
92.9429
92.9295
92.9198
92.9141
92.9106
92.9082
92.906
92.902
92.8964
92.8888
92.8792
92.8703
92.8635
92.86
92.8589
94.2937
94.3094
94.3127
94.304
94.2908
94.2762
94.2643
94.2565
94.2529
94.2516
94.2525
94.2532
94.2554
94.2563
94.255
94.2496
94.2383
94.2231
94.2125
94.2124
95.5282
95.5234
95.5204
95.5214
95.5264
95.5343
95.5433
95.5515
95.5587
95.5652
95.5718
95.5802
95.59
95.6035
95.6201
95.6367
95.6504
95.6557
95.6459
95.6254
96.7673
96.7556
96.7556
96.768
96.7857
96.806
96.8248
96.8402
96.8519
96.8609
96.8686
96.8749
96.8826
96.8915
96.903
96.9178
96.9334
96.9466
96.9466
96.9314
98.0801
98.0813
98.0856
98.0915
98.0994
98.1089
98.1189
98.1278
98.135
98.1404
98.1439
98.1463
98.1461
98.1439
98.1395
98.1333
98.1278
98.1252
98.1267
98.1299
99.3892
99.3923
99.395
99.3963
99.3977
99.4003
99.4035
99.4063
99.4083
99.4089
99.4086
99.406
99.4025
99.3958
99.3856
99.3713
99.3532
99.3355
99.3282
99.335
100.691
100.699
100.703
100.702
100.696
100.688
100.679
100.671
100.665
100.66
100.655
100.651
100.647
100.645
100.643
100.64
100.635
100.625
100.614
100.605
101.961
101.975
101.978
101.969
101.955
101.938
101.922
101.908
101.897
101.887
101.879
101.87
101.862
101.856
101.852
101.851
101.852
101.853
101.848
101.834
103.124
103.126
103.126
103.125
103.122
103.118
103.112
103.105
103.097
103.088
103.077
103.065
103.051
103.034
103.016
102.996
102.979
102.966
102.963
102.965
104.268
104.268
104.272
104.277
104.282
104.286
104.288
104.287
104.283
104.276
104.267
104.254
104.238
104.218
104.195
104.167
104.138
104.111
104.099
104.106
105.394
105.39
105.393
105.401
105.415
105.43
105.444
105.454
105.457
105.456
105.449
105.44
105.427
105.412
105.397
105.38
105.362
105.344
105.328
105.321
106.536
106.527
106.533
106.552
106.575
106.6
106.62
106.634
106.64
106.64
106.634
106.624
106.61
106.593
106.575
106.558
106.543
106.532
106.521
106.512
107.762
107.771
107.785
107.8
107.813
107.824
107.832
107.837
107.837
107.834
107.825
107.812
107.794
107.771
107.743
107.712
107.678
107.648
107.634
107.641
108.974
108.984
108.995
109.001
109.009
109.019
109.029
109.036
109.039
109.036
109.027
109.014
108.997
108.976
108.954
108.931
108.907
108.884
108.866
108.86
110.135
110.126
110.135
110.156
110.182
110.21
110.233
110.249
110.256
110.255
110.245
110.23
110.209
110.184
110.158
110.134
110.112
110.095
110.082
110.075
111.414
111.421
111.439
111.459
111.476
111.491
111.502
111.508
111.509
111.503
111.491
111.472
111.446
111.414
111.377
111.336
111.294
111.258
111.243
111.254
112.703
112.716
112.735
112.749
112.762
112.772
112.782
112.788
112.79
112.785
112.772
112.753
112.728
112.698
112.665
112.633
112.601
112.573
112.555
112.556
113.951
113.947
113.964
113.991
114.021
114.051
114.078
114.097
114.108
114.109
114.1
114.082
114.056
114.024
113.99
113.955
113.926
113.905
113.894
113.897
115.265
115.254
115.272
115.309
115.352
115.397
115.438
115.471
115.493
115.501
115.497
115.48
115.453
115.417
115.373
115.327
115.281
115.245
115.234
115.26
116.679
116.653
116.668
116.708
116.762
116.824
116.884
116.933
116.967
116.985
116.986
116.976
116.953
116.923
116.89
116.855
116.824
116.799
116.791
116.813
118.264
118.22
118.23
118.276
118.339
118.411
118.482
118.539
118.579
118.601
118.604
118.592
118.568
118.537
118.504
118.476
118.456
118.449
118.457
118.49
120.134
120.086
120.09
120.124
120.174
120.23
120.286
120.335
120.369
120.387
120.387
120.372
120.341
120.301
120.257
120.218
120.191
120.185
120.212
120.28
122.254
122.181
122.164
122.182
122.217
122.262
122.31
122.353
122.384
122.399
122.397
122.377
122.342
122.297
122.248
122.206
122.179
122.182
122.23
122.332
124.653
124.527
124.482
124.492
124.527
124.571
124.616
124.657
124.685
124.7
124.699
124.684
124.653
124.613
124.568
124.526
124.503
124.517
124.59
124.735
127.534
127.354
127.28
127.276
127.296
127.32
127.344
127.366
127.383
127.394
127.398
127.393
127.381
127.361
127.336
127.31
127.296
127.318
127.419
127.617
131.048
130.811
130.707
130.68
130.664
130.64
130.615
130.598
130.59
130.591
130.602
130.623
130.649
130.682
130.712
130.732
130.745
130.778
130.896
131.148
135.36
135.085
134.96
134.891
134.805
134.695
134.586
134.503
134.453
134.437
134.455
134.506
134.591
134.705
134.834
134.953
135.042
135.115
135.24
135.512
140.291
140.034
139.901
139.752
139.542
139.294
139.066
138.894
138.788
138.747
138.769
138.853
139.001
139.213
139.472
139.74
139.962
140.117
140.248
140.498
145.204
145.031
144.962
144.735
144.361
143.945
143.585
143.324
143.165
143.099
143.121
143.229
143.431
143.733
144.128
144.572
144.966
145.204
145.276
145.437
150.953
149.853
150.193
149.842
149.221
148.615
148.137
147.81
147.617
147.537
147.56
147.68
147.917
148.285
148.803
149.444
150.091
150.465
150.147
151.231
-0.263115
0.0053671
0.100333
0.400811
0.637269
0.771544
0.841339
0.88059
0.904194
0.916651
0.920817
0.916625
0.904917
0.880419
0.828084
0.714723
0.505596
0.232002
0.134088
-0.138188
1.74034
1.93534
2.04896
2.37691
2.70276
2.9445
3.10243
3.20217
3.26184
3.29225
3.29824
3.28195
3.24131
3.16823
3.04597
2.84689
2.56884
2.28494
2.17662
1.94662
5.27044
5.23461
5.31508
5.46959
5.65005
5.82312
5.95998
6.05362
6.11052
6.13591
6.13502
6.10599
6.04936
5.95708
5.82842
5.67106
5.51943
5.41587
5.36985
5.36648
8.47094
8.53587
8.61776
8.68813
8.75001
8.80695
8.8556
8.89211
8.91373
8.91919
8.90832
8.88062
8.83621
8.77278
8.68832
8.57633
8.43621
8.28075
8.20364
8.21303
11.5128
11.6732
11.7661
11.8097
11.8267
11.8347
11.8388
11.8372
11.8302
11.8158
11.7954
11.768
11.7384
11.7104
11.6934
11.6946
11.7102
11.7145
11.6653
11.6024
14.8101
14.956
15.0276
15.0204
14.9703
14.9084
14.8535
14.8087
14.7716
14.7374
14.7035
14.6676
14.6305
14.5946
14.5687
14.5668
14.6072
14.6877
14.7212
14.6788
18.1944
18.2428
18.2171
18.0935
17.9711
17.8715
17.7978
17.7424
17.6988
17.6593
17.6208
17.5769
17.5253
17.4598
17.3773
17.2795
17.1847
17.1267
17.1554
17.2217
20.913
20.8402
20.7666
20.7244
20.6993
20.6764
20.6524
20.628
20.6045
20.5806
20.5548
20.5236
20.484
20.4302
20.3562
20.2547
20.1281
19.9966
19.953
20.0018
23.6725
23.5811
23.5161
23.4966
23.4989
23.5047
23.5091
23.5116
23.5131
23.5129
23.5119
23.5086
23.504
23.4969
23.4876
23.4718
23.4433
23.3947
23.3317
23.2893
26.3706
26.2512
26.1933
26.213
26.2646
26.3204
26.3665
26.4016
26.4294
26.4539
26.4779
26.5034
26.5331
26.5682
26.6096
26.6516
26.6806
26.6764
26.6278
26.5738
29.1789
29.0772
29.0694
29.1361
29.2031
29.2578
29.3003
29.3357
29.3694
29.4038
29.4422
29.4868
29.5411
29.6101
29.698
29.8033
29.9086
29.9763
29.9589
29.8973
32.3094
32.3511
32.3696
32.3377
32.2994
32.2746
32.2713
32.2859
32.3122
32.3462
32.3864
32.4336
32.4903
32.5612
32.6529
32.7737
32.9231
33.0765
33.1292
33.0776
34.9312
35.0615
35.0775
35.0638
35.0757
35.109
35.151
35.1931
35.2335
35.2719
35.31
35.3482
35.3868
35.4259
35.4648
35.5052
35.5538
35.6193
35.6973
35.7448
37.4772
37.5124
37.5793
37.7312
37.8746
37.9902
38.0735
38.1325
38.1767
38.2121
38.2422
38.2677
38.2891
38.3043
38.3125
38.3158
38.3246
38.3563
38.4184
38.4708
40.8909
40.9405
41.0148
41.0624
41.09
41.1105
41.1298
41.1489
41.1675
41.1845
41.2006
41.2135
41.2216
41.2202
41.2043
41.1694
41.1239
41.0944
41.1261
41.1889
44.1696
44.2171
44.2541
44.2524
44.2323
44.2103
44.1929
44.1814
44.1758
44.1756
44.18
44.1874
44.1975
44.2054
44.2055
44.1851
44.1327
44.0539
44.0275
44.0705
47.4935
47.5466
47.5598
47.4996
47.4105
47.3221
47.2526
47.2044
47.1745
47.1584
47.1544
47.1617
47.1816
47.2181
47.2762
47.3554
47.4407
47.497
47.4783
47.4264
50.6412
50.6836
50.6318
50.4965
50.3718
50.2738
50.2046
50.1573
50.1257
50.1056
50.0945
50.0922
50.1007
50.1237
50.1691
50.2486
50.3687
50.5126
50.5758
50.5377
53.2365
53.1719
53.0977
53.0695
53.0676
53.0688
53.0648
53.0551
53.0423
53.027
53.0106
52.9923
52.9719
52.9484
52.9219
52.8978
52.8918
52.9263
53.0088
53.0777
55.8969
55.822
55.782
55.8148
55.8727
55.9263
55.962
55.9787
55.9799
55.9688
55.9474
55.9154
55.873
55.8163
55.7445
55.6605
55.5808
55.5393
55.5812
55.6607
58.7034
58.6364
58.6496
58.7494
58.8465
58.9192
58.962
58.9795
58.9786
58.9631
58.9361
58.897
58.8452
58.7768
58.6884
58.5756
58.445
58.321
58.2965
58.3638
62.0336
62.0587
62.0936
62.1094
62.1083
62.0986
62.0842
62.0661
62.0432
62.0153
61.9819
61.9424
61.8976
61.8466
61.7923
61.7355
61.6783
61.6215
61.5728
61.5508
65.3523
65.3835
65.3971
65.3694
65.3214
65.2687
65.2188
65.1734
65.1323
65.0939
65.0573
65.0205
64.983
64.9438
64.9036
64.862
64.8194
64.7746
64.7316
64.7047
68.6884
68.7296
68.7243
68.645
68.5359
68.4265
68.3349
68.2645
68.2113
68.1704
68.1374
68.1096
68.0857
68.0639
68.0442
68.0243
67.9994
67.9641
67.9215
67.8918
71.8208
71.8524
71.7863
71.6398
71.5057
71.3997
71.3238
71.2719
71.2371
71.2138
71.1987
71.1896
71.1853
71.186
71.1917
71.1999
71.2029
71.1883
71.1497
71.1131
74.3429
74.2677
74.1845
74.158
74.1648
74.1795
74.1926
74.204
74.2146
74.2263
74.2386
74.2529
74.2697
74.291
74.3193
74.3561
74.3961
74.4232
74.4067
74.3653
76.8569
76.7687
76.7259
76.7802
76.8758
76.9764
77.0629
77.1323
77.1878
77.2334
77.2724
77.307
77.3386
77.3686
77.3978
77.4297
77.4692
77.5197
77.5378
77.5136
79.4657
79.3766
79.398
79.5473
79.721
79.8842
80.0176
80.1214
80.2023
80.2685
80.3241
80.373
80.416
80.4514
80.4729
80.468
80.4255
80.3529
80.3329
80.3768
82.6003
82.6064
82.6918
82.8262
82.9458
83.0476
83.1345
83.2112
83.2799
83.3425
83.4011
83.4589
83.519
83.5872
83.6685
83.7629
83.8538
83.9078
83.883
83.8267
86.0851
86.1843
86.251
86.2491
86.2421
86.253
86.2848
86.3296
86.3791
86.4295
86.4786
86.528
86.5792
86.6369
86.7081
86.8027
86.9263
87.0635
87.1151
87.0685
89.1578
89.1954
89.2244
89.2496
89.2849
89.3306
89.3804
89.4289
89.4743
89.5151
89.5516
89.5828
89.6082
89.6261
89.6345
89.6359
89.6413
89.6714
89.7378
89.7919
92.2262
92.2501
92.2887
92.3382
92.3922
92.4476
92.4993
92.5446
92.5824
92.6133
92.6372
92.654
92.6621
92.6581
92.6379
92.5986
92.5482
92.5134
92.5388
92.5974
95.3674
95.3855
95.4307
95.487
95.5462
95.6042
95.6523
95.6876
95.7124
95.7294
95.7413
95.7488
95.752
95.7481
95.7321
95.6939
95.6251
95.5344
95.5013
95.5408
98.677
98.7087
98.7858
98.862
98.8961
98.9011
98.8916
98.878
98.8649
98.8549
98.8482
98.8468
98.8519
98.8672
98.8979
98.9451
98.999
99.0317
99.0019
98.9466
102.486
102.626
102.678
102.566
102.405
102.252
102.135
102.051
101.993
101.951
101.922
101.902
101.891
101.891
101.905
101.943
102.014
102.112
102.152
102.11
105.769
105.841
105.787
105.613
105.443
105.301
105.19
105.104
105.037
104.984
104.942
104.908
104.878
104.846
104.806
104.754
104.697
104.662
104.694
104.755
108.53
108.493
108.423
108.351
108.28
108.205
108.132
108.065
108.007
107.958
107.918
107.885
107.858
107.832
107.801
107.756
107.686
107.597
107.564
107.604
111.353
111.318
111.263
111.204
111.143
111.081
111.021
110.967
110.92
110.881
110.849
110.825
110.811
110.809
110.827
110.866
110.918
110.954
110.931
110.88
114.097
114.056
113.999
113.955
113.919
113.884
113.851
113.818
113.788
113.76
113.734
113.711
113.692
113.68
113.68
113.706
113.771
113.873
113.923
113.89
116.757
116.707
116.656
116.639
116.641
116.646
116.645
116.639
116.628
116.614
116.594
116.571
116.539
116.496
116.436
116.361
116.285
116.245
116.286
116.36
119.356
119.291
119.257
119.289
119.345
119.399
119.438
119.461
119.47
119.47
119.463
119.448
119.424
119.387
119.33
119.246
119.135
119.019
118.988
119.045
122.069
122.016
122.035
122.124
122.204
122.263
122.3
122.323
122.335
122.342
122.345
122.346
122.345
122.344
122.342
122.336
122.318
122.282
122.232
122.199
125.225
125.268
125.296
125.283
125.254
125.227
125.211
125.207
125.209
125.215
125.223
125.235
125.251
125.274
125.305
125.342
125.371
125.377
125.344
125.303
128.127
128.147
128.118
128.061
128.031
128.026
128.032
128.043
128.053
128.064
128.076
128.092
128.114
128.148
128.2
128.272
128.356
128.423
128.424
128.38
130.651
130.589
130.593
130.675
130.755
130.815
130.852
130.875
130.889
130.898
130.905
130.911
130.917
130.929
130.952
131
131.087
131.209
131.275
131.25
133.706
133.747
133.776
133.772
133.754
133.737
133.729
133.73
133.733
133.734
133.73
133.719
133.698
133.663
133.61
133.542
133.476
133.448
133.503
133.585
136.508
136.521
136.495
136.462
136.467
136.497
136.531
136.559
136.577
136.583
136.579
136.563
136.534
136.489
136.421
136.327
136.212
136.098
136.077
136.142
138.993
138.914
138.929
139.054
139.191
139.308
139.389
139.437
139.461
139.47
139.467
139.456
139.435
139.408
139.374
139.335
139.291
139.244
139.2
139.176
142.171
142.198
142.282
142.37
142.414
142.427
142.424
142.418
142.409
142.4
142.389
142.376
142.362
142.346
142.327
142.305
142.278
142.245
142.206
142.176
145.747
145.88
145.923
145.816
145.673
145.546
145.454
145.394
145.354
145.329
145.311
145.3
145.294
145.294
145.297
145.3
145.295
145.274
145.235
145.203
148.74
148.794
148.735
148.593
148.474
148.386
148.324
148.28
148.247
148.224
148.208
148.202
148.205
148.22
148.247
148.282
148.313
148.319
148.287
148.246
151.208
151.136
151.08
151.084
151.108
151.127
151.129
151.119
151.102
151.085
151.071
151.065
151.068
151.087
151.127
151.191
151.27
151.335
151.333
151.287
153.959
153.909
153.92
153.981
154.019
154.028
154.015
153.992
153.965
153.938
153.914
153.892
153.876
153.868
153.874
153.91
153.988
154.104
154.165
154.138
157.207
157.259
157.275
157.214
157.119
157.022
156.94
156.879
156.829
156.788
156.749
156.71
156.664
156.609
156.538
156.455
156.377
156.34
156.389
156.468
160.208
160.251
160.192
160.051
159.924
159.827
159.757
159.707
159.668
159.634
159.6
159.562
159.514
159.452
159.369
159.262
159.136
159.014
158.986
159.047
162.61
162.543
162.468
162.449
162.459
162.476
162.487
162.493
162.492
162.488
162.478
162.461
162.436
162.404
162.363
162.317
162.266
162.213
162.163
162.135
165.045
164.965
164.929
164.985
165.077
165.172
165.248
165.306
165.346
165.374
165.392
165.402
165.405
165.4
165.388
165.368
165.34
165.302
165.257
165.223
167.619
167.539
167.566
167.708
167.865
168.007
168.118
168.199
168.26
168.308
168.347
168.382
168.414
168.444
168.469
168.487
168.489
168.467
168.423
168.384
170.773
170.794
170.88
170.987
171.062
171.115
171.157
171.198
171.238
171.282
171.328
171.38
171.438
171.503
171.573
171.642
171.694
171.706
171.667
171.617
174.299
174.422
174.471
174.398
174.304
174.232
174.197
174.193
174.212
174.246
174.293
174.354
174.429
174.523
174.637
174.768
174.895
174.979
174.97
174.91
177.241
177.274
177.234
177.152
177.101
177.085
177.088
177.104
177.129
177.164
177.209
177.269
177.342
177.437
177.555
177.704
177.88
178.054
178.116
178.064
179.804
179.741
179.742
179.817
179.886
179.936
179.967
179.991
180.014
180.042
180.077
180.119
180.17
180.23
180.297
180.373
180.456
180.55
180.642
180.689
182.944
182.985
183.01
182.99
182.95
182.913
182.89
182.883
182.886
182.897
182.914
182.935
182.959
182.988
183.02
183.062
183.119
183.198
183.285
183.337
185.848
185.865
185.83
185.766
185.729
185.718
185.719
185.724
185.728
185.732
185.734
185.732
185.727
185.716
185.7
185.685
185.689
185.733
185.817
185.883
188.393
188.327
188.327
188.405
188.478
188.53
188.559
188.573
188.577
188.574
188.564
188.546
188.516
188.471
188.409
188.334
188.264
188.234
188.287
188.368
191.495
191.535
191.561
191.547
191.517
191.487
191.467
191.457
191.449
191.44
191.424
191.398
191.361
191.307
191.23
191.131
191.014
190.905
190.891
190.959
194.345
194.359
194.33
194.282
194.267
194.276
194.294
194.31
194.318
194.319
194.311
194.294
194.267
194.232
194.191
194.147
194.105
194.066
194.03
194.009
196.834
196.766
196.777
196.885
196.997
197.088
197.15
197.188
197.21
197.22
197.22
197.209
197.191
197.165
197.134
197.101
197.069
197.04
197.012
196.988
199.914
199.947
199.999
200.036
200.061
200.081
200.099
200.116
200.129
200.137
200.14
200.137
200.128
200.113
200.094
200.07
200.045
200.016
199.986
199.961
202.932
202.974
203.009
203.02
203.02
203.022
203.027
203.034
203.042
203.05
203.056
203.059
203.061
203.059
203.054
203.044
203.028
203.002
202.967
202.937
205.94
205.989
206.015
205.997
205.965
205.937
205.921
205.917
205.921
205.929
205.941
205.956
205.971
205.988
206.006
206.019
206.022
206.005
205.967
205.932
208.773
208.804
208.79
208.741
208.713
208.707
208.713
208.725
208.739
208.756
208.777
208.8
208.831
208.868
208.913
208.961
208.999
209.007
208.973
208.927
211.246
211.2
211.218
211.303
211.378
211.43
211.463
211.484
211.501
211.52
211.543
211.572
211.609
211.659
211.725
211.808
211.897
211.964
211.957
211.904
214.288
214.355
214.398
214.374
214.32
214.266
214.231
214.215
214.213
214.22
214.235
214.254
214.281
214.315
214.361
214.43
214.528
214.65
214.706
214.668
217.029
217.081
217.053
216.959
216.888
216.846
216.829
216.825
216.828
216.836
216.846
216.857
216.866
216.868
216.857
216.827
216.787
216.766
216.809
216.875
219.208
219.149
219.12
219.159
219.225
219.288
219.334
219.364
219.384
219.398
219.409
219.417
219.426
219.43
219.425
219.399
219.342
219.26
219.232
219.276
221.616
221.581
221.622
221.72
221.8
221.853
221.884
221.901
221.911
221.917
221.922
221.929
221.94
221.961
221.999
222.054
222.118
222.164
222.145
222.094
224.492
224.562
224.608
224.586
224.535
224.483
224.445
224.421
224.405
224.391
224.38
224.367
224.358
224.352
224.358
224.389
224.459
224.568
224.625
224.594
227.082
227.139
227.115
227.021
226.947
226.898
226.869
226.847
226.828
226.806
226.78
226.748
226.708
226.654
226.583
226.495
226.406
226.357
226.4
226.481
229.128
229.072
229.045
229.082
229.141
229.192
229.221
229.227
229.218
229.196
229.165
229.124
229.073
229.006
228.919
228.804
228.664
228.527
228.49
228.555
231.448
231.416
231.458
231.549
231.614
231.645
231.651
231.638
231.614
231.583
231.547
231.506
231.46
231.41
231.357
231.298
231.233
231.166
231.108
231.084
234.289
234.363
234.407
234.365
234.282
234.193
234.118
234.057
234.006
233.96
233.917
233.875
233.835
233.794
233.752
233.708
233.658
233.604
233.555
233.529
236.884
236.95
236.919
236.783
236.65
236.542
236.46
236.395
236.342
236.295
236.254
236.217
236.185
236.157
236.132
236.108
236.076
236.033
235.988
235.964
238.914
238.874
238.821
238.787
238.763
238.736
238.704
238.669
238.633
238.598
238.564
238.535
238.51
238.492
238.483
238.479
238.472
238.452
238.416
238.392
241.017
240.973
240.941
240.942
240.953
240.959
240.955
240.942
240.922
240.896
240.867
240.839
240.814
240.795
240.788
240.796
240.817
240.838
240.832
240.812
243.148
243.08
243.064
243.111
243.174
243.227
243.257
243.265