/*--------------------------------*- C++ -*----------------------------------*\
  =========                 |
  \\      /  F ield         | OpenFOAM: The Open Source CFD Toolbox
   \\    /   O peration     | Website:  https://openfoam.org
    \\  /    A nd           | Version:  6
     \\/     M anipulation  |
\*---------------------------------------------------------------------------*/
FoamFile
{
    version     2.0;
    format      ascii;
    class       volScalarField;
    location    "2";
    object      p;
}
// * * * * * * * * * * * * * * * * * * * * * * * * * * * * * * * * * * * * * //

dimensions      [0 2 -2 0 0 0 0];

internalField   nonuniform List<scalar> 
130000
(
0.0681767
0.0666441
0.0647414
0.0626879
0.0607638
0.0591055
0.0577199
0.0566189
0.0557406
0.0550784
0.0545655
0.054207
0.0539419
0.0537869
0.0536854
0.0536505
0.0536117
0.0535588
0.0533869
0.0530429
0.210984
0.207724
0.204147
0.200365
0.196786
0.193536
0.190762
0.18841
0.186524
0.184984
0.183816
0.182888
0.182237
0.181731
0.181412
0.181148
0.180967
0.180718
0.180437
0.179981
0.352346
0.349614
0.346863
0.343826
0.340927
0.338037
0.335493
0.333133
0.331212
0.329508
0.328219
0.327094
0.326306
0.325598
0.325137
0.32466
0.324337
0.323914
0.32363
0.323303
0.478378
0.477479
0.476056
0.474151
0.472312
0.470279
0.468476
0.466637
0.465156
0.463714
0.462662
0.461638
0.460971
0.46028
0.459885
0.459403
0.459165
0.458799
0.458708
0.45854
0.599779
0.600206
0.60002
0.599228
0.598504
0.597428
0.596515
0.595381
0.594539
0.593571
0.592952
0.592232
0.59186
0.591364
0.591187
0.590854
0.590813
0.590597
0.590719
0.590697
0.718537
0.720422
0.721412
0.721702
0.722022
0.721872
0.721824
0.72141
0.721236
0.720796
0.72068
0.720339
0.720348
0.720133
0.720261
0.720152
0.720378
0.720353
0.720724
0.720877
0.837289
0.84032
0.842337
0.843505
0.844732
0.845357
0.846074
0.846292
0.846733
0.846792
0.84716
0.847208
0.847602
0.847694
0.848138
0.84828
0.848773
0.848959
0.849565
0.849892
0.956614
0.960622
0.963446
0.965354
0.967312
0.968607
0.96996
0.970736
0.971706
0.972215
0.973021
0.97343
0.974189
0.974576
0.975329
0.975714
0.976475
0.976857
0.977692
0.978183
1.07753
1.08232
1.08568
1.08815
1.09062
1.09243
1.09424
1.09545
1.09681
1.09768
1.09882
1.09954
1.10059
1.10123
1.10224
1.10284
1.10381
1.10437
1.10539
1.10601
1.20075
1.20592
1.20963
1.21242
1.21521
1.21733
1.21943
1.2209
1.22253
1.22363
1.22501
1.22594
1.22721
1.22804
1.22925
1.23001
1.23117
1.23186
1.23302
1.23375
1.32493
1.3308
1.3349
1.33798
1.34102
1.34334
1.34563
1.34729
1.34908
1.35035
1.35189
1.35297
1.35439
1.35537
1.35672
1.35761
1.35889
1.35968
1.36095
1.36175
1.45124
1.45731
1.46157
1.46477
1.46796
1.47044
1.47288
1.47468
1.47662
1.47803
1.47972
1.48093
1.48249
1.48359
1.48507
1.48607
1.48747
1.48834
1.48969
1.49055
1.57901
1.58515
1.58943
1.59274
1.59607
1.59874
1.60136
1.60335
1.60546
1.60703
1.60887
1.61024
1.61194
1.61317
1.61478
1.61589
1.61739
1.61835
1.61978
1.62069
1.70894
1.715
1.7192
1.72255
1.72598
1.72882
1.73162
1.73381
1.7361
1.73787
1.73989
1.74141
1.74329
1.74467
1.74643
1.74768
1.74932
1.75038
1.75192
1.75291
1.8418
1.84746
1.85142
1.85467
1.85816
1.86112
1.86409
1.86648
1.86898
1.87096
1.87319
1.87494
1.87701
1.8786
1.88055
1.88199
1.88379
1.88503
1.88671
1.88784
1.97801
1.98295
1.98645
1.98948
1.99292
1.99598
1.99913
2.00174
2.00448
2.00673
2.00922
2.01124
2.01358
2.01544
2.01765
2.01935
2.02141
2.02287
2.02477
2.02612
2.11781
2.12174
2.1246
2.1273
2.13063
2.13378
2.13708
2.13995
2.14296
2.14554
2.14834
2.15072
2.15338
2.1556
2.15814
2.1602
2.16256
2.16438
2.16656
2.16824
2.26067
2.26371
2.2659
2.2683
2.27152
2.27476
2.27823
2.28137
2.28468
2.28763
2.29079
2.29357
2.29663
2.29928
2.30222
2.3047
2.30748
2.3097
2.31228
2.31437
2.40597
2.40827
2.40999
2.41219
2.41538
2.41877
2.42245
2.42593
2.42959
2.43297
2.43655
2.43983
2.44335
2.44652
2.44994
2.45297
2.45622
2.459
2.46204
2.46469
2.55222
2.55427
2.55586
2.5581
2.56146
2.56517
2.56922
2.57316
2.57728
2.5812
2.5853
2.58916
2.59323
2.59701
2.601
2.60464
2.60847
2.61184
2.61544
2.61871
2.69912
2.70115
2.70286
2.70539
2.70917
2.71341
2.71801
2.72258
2.72731
2.73191
2.73665
2.74122
2.74593
2.75044
2.75508
2.75945
2.76392
2.76803
2.77226
2.77628
2.84635
2.84877
2.85079
2.85384
2.85817
2.86311
2.86839
2.87373
2.87918
2.88457
2.89004
2.89539
2.90084
2.90612
2.91148
2.91662
2.92181
2.92666
2.93158
2.93635
2.99471
2.99744
2.99984
3.00345
3.00841
3.01412
3.02015
3.02633
3.03256
3.03879
3.04504
3.05125
3.05745
3.06359
3.0697
3.07569
3.0816
3.08729
3.09292
3.09855
3.14316
3.14647
3.14938
3.15367
3.15934
3.16588
3.1727
3.17974
3.18678
3.19388
3.20092
3.20797
3.21496
3.22191
3.22879
3.23556
3.24222
3.24866
3.255
3.26139
3.29169
3.29559
3.29912
3.30415
3.31059
3.318
3.32563
3.33355
3.34139
3.34935
3.35716
3.36504
3.37277
3.38053
3.38812
3.3957
3.40304
3.41027
3.41726
3.42447
3.43987
3.44467
3.44883
3.45463
3.46179
3.47001
3.47839
3.48712
3.49569
3.50442
3.51293
3.52156
3.52996
3.53844
3.54668
3.55494
3.56291
3.57079
3.57837
3.5862
3.58877
3.59393
3.59854
3.60491
3.61269
3.6216
3.63063
3.64005
3.64926
3.65868
3.6678
3.6771
3.68608
3.69521
3.70401
3.71291
3.7214
3.7299
3.73797
3.74643
3.73628
3.74201
3.74712
3.75403
3.76239
3.77192
3.78155
3.79159
3.80137
3.81138
3.82106
3.83092
3.84042
3.85009
3.85938
3.86877
3.87772
3.88668
3.89516
3.90405
3.88216
3.88836
3.89399
3.90146
3.91043
3.92058
3.93081
3.94145
3.95179
3.96236
3.97254
3.98293
3.99289
4.00305
4.01275
4.02261
4.03193
4.0413
4.05011
4.0594
4.02566
4.03259
4.03883
4.04695
4.05656
4.06737
4.07822
4.08946
4.10035
4.11147
4.12214
4.133
4.14341
4.15399
4.16408
4.1743
4.18395
4.19363
4.2027
4.21224
4.1679
4.1755
4.18234
4.19107
4.20132
4.21278
4.22423
4.23607
4.2475
4.25914
4.27029
4.28161
4.29242
4.3034
4.31384
4.32441
4.33434
4.3443
4.35358
4.36336
4.30962
4.31782
4.32516
4.33446
4.3453
4.35735
4.36938
4.38178
4.39373
4.40586
4.41746
4.42922
4.44042
4.45177
4.46253
4.4734
4.48359
4.49379
4.50325
4.5132
4.45141
4.46003
4.46783
4.47764
4.48903
4.50166
4.51424
4.52717
4.53962
4.55224
4.56427
4.57645
4.58802
4.59972
4.61079
4.62196
4.63239
4.64281
4.65245
4.66255
4.59322
4.60239
4.61069
4.62102
4.63299
4.64618
4.65931
4.67276
4.68571
4.69879
4.71126
4.72384
4.73578
4.74783
4.75921
4.77066
4.78134
4.79197
4.80178
4.81203
4.73559
4.74533
4.75415
4.76502
4.77755
4.79131
4.80499
4.81896
4.83241
4.84595
4.85885
4.87184
4.88415
4.89654
4.90824
4.91997
4.9309
4.94175
4.95174
4.96215
4.87909
4.88935
4.89864
4.91002
4.92312
4.93742
4.95165
4.96615
4.98009
4.99409
5.00744
5.02082
5.03353
5.04627
5.0583
5.07032
5.08152
5.09261
5.10279
5.11337
5.02385
5.03449
5.04425
5.05612
5.06979
5.08466
5.09945
5.11447
5.12892
5.14341
5.15721
5.17102
5.18412
5.19723
5.2096
5.22193
5.23341
5.24474
5.25514
5.26589
5.16948
5.18069
5.19099
5.20343
5.21771
5.23317
5.24856
5.26414
5.27913
5.29411
5.3084
5.32264
5.33617
5.34966
5.36239
5.37505
5.38683
5.39842
5.40906
5.42002
5.3163
5.32814
5.33904
5.35207
5.36699
5.38308
5.39909
5.41524
5.4308
5.44629
5.46107
5.47578
5.48974
5.50362
5.51673
5.52973
5.54182
5.55369
5.56457
5.57574
5.46479
5.47722
5.48868
5.50231
5.51787
5.5346
5.55123
5.56797
5.58409
5.60011
5.6154
5.63057
5.64499
5.65928
5.67278
5.68613
5.69856
5.71071
5.72187
5.73327
5.61506
5.62798
5.63998
5.65419
5.67041
5.68776
5.70503
5.72235
5.73905
5.7556
5.77141
5.78706
5.80193
5.81664
5.83053
5.84423
5.857
5.86944
5.88086
5.89249
5.76687
5.78043
5.79303
5.80786
5.82473
5.84273
5.86063
5.87855
5.89583
5.91291
5.92924
5.94535
5.96068
5.97581
5.99011
6.00417
6.01728
6.03002
6.04172
6.05358
5.92067
5.93484
5.94804
5.96345
5.98097
5.99958
6.01811
6.0366
6.05444
6.07204
6.08888
6.10546
6.12124
6.13677
6.15146
6.16587
6.17931
6.19234
6.20431
6.21639
6.07697
6.09159
6.10525
6.12117
6.13928
6.15847
6.17758
6.19662
6.21501
6.23311
6.25044
6.26746
6.28369
6.29962
6.31471
6.32946
6.34324
6.35655
6.36879
6.38111
6.23561
6.25047
6.26452
6.2809
6.29956
6.3193
6.33898
6.35855
6.37747
6.39605
6.41386
6.43133
6.44798
6.4643
6.47976
6.49485
6.50894
6.52252
6.53502
6.54754
6.39598
6.41121
6.42567
6.44254
6.46176
6.48207
6.50232
6.52243
6.54187
6.56094
6.57923
6.59713
6.61421
6.63091
6.64674
6.66215
6.67656
6.6904
6.70315
6.71588
6.55814
6.57379
6.58871
6.60607
6.62588
6.64675
6.66758
6.68821
6.70819
6.72774
6.7465
6.76482
6.78231
6.79937
6.81556
6.83128
6.84598
6.86007
6.87304
6.88594
6.72259
6.73858
6.75388
6.77171
6.79206
6.81349
6.83488
6.85604
6.87653
6.89655
6.91577
6.93449
6.95239
6.96981
6.98634
7.00235
7.01734
7.03166
7.04485
7.05792
6.88943
6.90558
6.92121
6.93945
6.96033
6.98229
7.00423
7.0259
7.04689
7.06736
7.08701
7.10614
7.12441
7.14217
7.15901
7.1753
7.19054
7.20507
7.21845
7.23166
7.05845
7.07482
7.09075
7.10941
7.1308
7.15328
7.17574
7.19791
7.21937
7.24028
7.26036
7.27986
7.29849
7.31656
7.33371
7.35026
7.36574
7.38046
7.394
7.40734
7.22986
7.2464
7.2626
7.28164
7.30351
7.32647
7.34943
7.37206
7.39399
7.41531
7.43578
7.45564
7.4746
7.49296
7.51038
7.52716
7.54284
7.55772
7.57139
7.58481
7.40399
7.42056
7.43692
7.45628
7.47856
7.50198
7.5254
7.54847
7.57082
7.59253
7.61337
7.63356
7.65283
7.67146
7.68913
7.70611
7.72198
7.73699
7.75078
7.76426
7.58069
7.5971
7.61356
7.63317
7.65585
7.6797
7.70357
7.72707
7.74982
7.77191
7.7931
7.8136
7.83315
7.85203
7.86992
7.88707
7.90309
7.9182
7.93206
7.94556
7.75944
7.77581
7.79238
7.81228
7.83536
7.85966
7.88398
7.9079
7.93106
7.95351
7.97503
7.99582
8.01565
8.03475
8.05284
8.07014
8.08629
8.10148
8.11539
8.12888
7.94036
7.95667
7.97338
7.99358
8.01708
8.04183
8.0666
8.09095
8.1145
8.13732
8.15917
8.18025
8.20032
8.21963
8.23788
8.25532
8.27155
8.28679
8.30069
8.31414
8.12363
8.13987
8.15668
8.1772
8.20111
8.22632
8.25154
8.27632
8.30027
8.32344
8.3456
8.36695
8.38725
8.40674
8.42515
8.44269
8.45899
8.47424
8.48812
8.50148
8.30941
8.32544
8.34234
8.36314
8.38747
8.41315
8.43883
8.46404
8.48838
8.5119
8.53437
8.55598
8.57649
8.59615
8.61467
8.63229
8.64861
8.66385
8.67765
8.6909
8.49734
8.51334
8.53036
8.5515
8.57627
8.60244
8.62857
8.65422
8.67895
8.70281
8.72557
8.74742
8.76813
8.78793
8.80655
8.82421
8.84054
8.85571
8.86941
8.88248
8.68795
8.70381
8.72094
8.7424
8.76762
8.79426
8.82086
8.84694
8.87205
8.89625
8.91929
8.94137
8.96224
8.98217
9.00085
9.01854
9.03481
9.0499
9.06344
9.0763
8.88129
8.89698
8.91417
8.93594
8.96159
8.98871
9.01577
9.04229
9.06777
9.0923
9.1156
9.13789
9.15892
9.17894
9.19767
9.21533
9.23154
9.24648
9.25983
9.27242
9.07755
9.09283
9.11003
9.1321
9.15819
9.18581
9.21334
9.24031
9.26617
9.29103
9.31459
9.33709
9.35826
9.37837
9.3971
9.41472
9.43081
9.4456
9.45869
9.47098
9.27593
9.29107
9.30837
9.33081
9.35741
9.38558
9.41362
9.44106
9.46732
9.49253
9.51635
9.53905
9.56034
9.58051
9.59923
9.61677
9.63271
9.64728
9.66008
9.67199
9.47712
9.49201
9.50943
9.53228
9.55941
9.58817
9.61676
9.6447
9.67138
9.69694
9.72103
9.74393
9.76533
9.78555
9.80422
9.82168
9.83742
9.85175
9.8642
9.87569
9.68108
9.69581
9.71334
9.73663
9.76433
9.79372
9.82287
9.85134
9.87846
9.90439
9.92874
9.95184
9.97334
9.99357
10.0122
10.0295
10.045
10.059
10.0711
10.0821
9.88853
9.90279
9.92039
9.9441
9.9724
10.0024
10.0322
10.0612
10.0888
10.1151
10.1397
10.163
10.1846
10.2048
10.2233
10.2405
10.2557
10.2694
10.281
10.2914
10.0988
10.1129
10.1306
10.1548
10.1837
10.2145
10.2449
10.2745
10.3025
10.3292
10.3541
10.3775
10.3992
10.4194
10.4378
10.4547
10.4696
10.4829
10.4939
10.5037
10.313
10.3265
10.3443
10.369
10.3986
10.4301
10.4611
10.4913
10.5198
10.5469
10.5721
10.5957
10.6174
10.6376
10.6558
10.6725
10.687
10.6998
10.7103
10.7194
10.5308
10.5439
10.5618
10.587
10.6172
10.6494
10.6812
10.712
10.741
10.7685
10.7939
10.8177
10.8394
10.8595
10.8775
10.8939
10.908
10.9202
10.93
10.9383
10.753
10.7654
10.7831
10.8088
10.8398
10.8728
10.9052
10.9367
10.9662
10.9941
11.0198
11.0438
11.0655
11.0855
11.1032
11.1193
11.1328
11.1445
11.1535
11.1609
10.9787
10.9905
11.0083
11.0345
11.0663
11.1002
11.1334
11.1656
11.1957
11.224
11.25
11.2741
11.2958
11.3157
11.3331
11.3487
11.3617
11.3726
11.3808
11.3871
11.209
11.2199
11.2377
11.2645
11.2971
11.332
11.366
11.399
11.4297
11.4585
11.4848
11.509
11.5307
11.5504
11.5675
11.5826
11.5949
11.6051
11.6123
11.6176
11.4437
11.4538
11.4715
11.499
11.5325
11.5684
11.6033
11.6371
11.6684
11.6978
11.7243
11.7487
11.7703
11.7898
11.8065
11.821
11.8326
11.8419
11.848
11.852
11.6839
11.6928
11.7103
11.7384
11.7729
11.8098
11.8458
11.8804
11.9124
11.9423
11.9691
11.9937
12.0151
12.0344
12.0506
12.0645
12.0753
12.0836
12.0885
12.0911
11.9289
11.9367
11.9541
11.9829
12.0184
12.0565
12.0935
12.1291
12.1618
12.1922
12.2193
12.244
12.2653
12.2842
12.2999
12.313
12.3228
12.33
12.3335
12.3345
12.1803
12.1865
12.2036
12.233
12.2696
12.3089
12.347
12.3836
12.417
12.448
12.4754
12.5001
12.5213
12.5398
12.5548
12.5671
12.5758
12.5818
12.5838
12.583
12.4378
12.4423
12.4589
12.4889
12.5266
12.5672
12.6065
12.6441
12.6783
12.7099
12.7375
12.7623
12.7832
12.8013
12.8155
12.8268
12.8343
12.8388
12.8391
12.8363
12.7026
12.7046
12.7206
12.7511
12.79
12.8318
12.8723
12.9111
12.9461
12.9783
13.0062
13.031
13.0516
13.0691
13.0824
13.0927
13.0987
13.1016
13.1
13.0951
12.974
12.9735
12.9886
13.0197
13.0597
13.103
13.1448
13.1847
13.2207
13.2534
13.2816
13.3064
13.3266
13.3433
13.3557
13.3646
13.3691
13.3701
13.3664
13.359
13.2539
13.2499
13.2638
13.2952
13.3364
13.3812
13.4244
13.4656
13.5024
13.5358
13.5642
13.5889
13.6086
13.6245
13.6357
13.6432
13.6459
13.6449
13.6389
13.629
13.5423
13.5343
13.5464
13.5781
13.6204
13.6667
13.7114
13.7538
13.7916
13.8255
13.8542
13.8787
13.8978
13.9128
13.9226
13.9284
13.9292
13.9261
13.9177
13.9052
13.8409
13.8276
13.8374
13.8689
13.9123
13.9601
14.0062
14.0499
14.0887
14.1232
14.152
14.1762
14.1946
14.2085
14.2168
14.2209
14.2197
14.2144
14.2038
14.1887
14.15
14.1304
14.1372
14.1682
14.2125
14.2616
14.3092
14.3542
14.3939
14.429
14.4578
14.4816
14.4991
14.5117
14.5184
14.5207
14.5175
14.5103
14.4972
14.4784
14.4722
14.4443
14.447
14.4768
14.5216
14.5721
14.621
14.6672
14.7078
14.7433
14.772
14.7952
14.8117
14.823
14.8281
14.8286
14.8235
14.8139
14.7972
14.7738
14.8086
14.7706
14.7677
14.7956
14.8405
14.8919
14.9421
14.9894
15.0306
15.0664
15.0949
15.1174
15.1328
15.1426
15.146
15.1448
15.1372
15.1238
15.1025
15.074
15.1625
15.1115
15.1014
15.1262
15.1705
15.2225
15.2735
15.3216
15.3633
15.3992
15.4272
15.4488
15.4628
15.4712
15.4729
15.4691
15.4574
15.4393
15.413
15.3789
15.5372
15.47
15.4503
15.4706
15.5134
15.5653
15.6168
15.6653
15.7072
15.7427
15.7699
15.7904
15.803
15.8097
15.8086
15.8004
15.7837
15.7603
15.7283
15.6878
15.9384
15.8507
15.8187
15.8325
15.8726
15.9236
15.9749
16.0233
16.0648
16.0996
16.1256
16.1445
16.1553
16.1591
16.1533
16.1394
16.1167
16.0869
16.0483
16.0005
16.3732
16.2601
16.2123
16.2176
16.2535
16.3027
16.3529
16.4005
16.441
16.4743
16.4985
16.5154
16.5229
16.5212
16.5088
16.4878
16.4575
16.4198
16.3731
16.3165
16.8521
16.7076
16.6402
16.6345
16.6649
16.7111
16.7595
16.8056
16.8441
16.8752
16.8968
16.9099
16.9111
16.9013
16.8799
16.8494
16.809
16.7611
16.704
16.6367
17.3885
17.2059
17.1148
17.0959
17.1195
17.1621
17.2079
17.2515
17.2873
17.3149
17.3319
17.3377
17.329
17.3081
17.2744
17.2306
17.1765
17.1146
17.0437
16.9626
17.9987
17.7707
17.652
17.6181
17.6344
17.673
17.7158
17.7563
17.7878
17.8101
17.8189
17.8131
17.7907
17.7541
17.7032
17.6409
17.5675
17.4864
17.3969
17.2977
18.6999
18.4191
18.2696
18.2197
18.2287
18.2634
18.3029
18.339
18.3644
18.3777
18.3736
18.3511
18.3094
18.2512
18.1766
18.089
17.9894
17.8821
17.7675
17.6446
19.506
19.1663
18.9839
18.9174
18.9194
18.9502
18.9854
19.0151
19.0307
19.0295
19.0057
18.9601
18.8917
18.8041
18.6975
18.5764
18.4422
18.3007
18.1536
18.0009
20.4234
20.0219
19.8066
19.7234
19.7177
19.7429
19.7708
19.7895
19.7894
19.7661
19.7143
19.6363
19.5315
19.404
19.255
19.0898
18.9108
18.7253
18.5373
18.3485
21.441
20.9912
20.752
20.6551
20.6421
20.6588
20.6733
20.6718
20.6442
20.5867
20.4948
20.3718
20.2178
20.0377
19.8326
19.6087
19.3693
19.1243
18.8811
18.6454
22.5736
22.1433
21.9244
21.8347
21.8207
21.8246
21.8137
21.7747
21.6984
21.583
21.4256
21.2314
21.002
20.744
20.4588
20.1517
19.8243
19.4877
19.1528
18.8335
23.9518
23.753
23.6668
23.6205
23.6052
23.5816
23.5249
23.4247
23.2719
23.0651
22.8028
22.4923
22.1382
21.7512
21.3356
20.897
20.4297
19.9339
19.4125
18.8871
25.8145
26.2564
26.3884
26.3318
26.251
26.1529
26.0195
25.8353
25.5862
25.2651
24.8688
24.4034
23.8768
23.3045
22.7019
22.083
21.4379
20.7252
19.87
18.8291
28.4524
29.8261
30.085
29.9777
29.8393
29.6888
29.5012
29.2565
28.9287
28.5046
27.9776
27.3508
26.624
25.8082
24.9161
23.9744
22.9991
21.9495
20.5891
18.4265
31.921
36.9088
36.5085
35.4883
34.7456
34.2687
33.9108
33.5696
33.1657
32.6641
32.0511
31.3266
30.4847
29.5418
28.5237
27.5114
26.6081
25.7999
24.3989
17.3813
0.0823034
0.0824931
0.0825696
0.082404
0.082167
0.0819113
0.0817133
0.0815569
0.0814728
0.0814304
0.0814483
0.0815022
0.0816055
0.0817397
0.081911
0.0820896
0.0822476
0.0823184
0.0822109
0.0818218
0.279049
0.279538
0.279826
0.279835
0.279648
0.279448
0.279251
0.27914
0.279082
0.279116
0.279202
0.279359
0.279556
0.279798
0.280047
0.280281
0.280436
0.280443
0.280237
0.279824
0.500535
0.501637
0.502325
0.502881
0.503154
0.503415
0.503547
0.503753
0.503899
0.504137
0.504331
0.504601
0.504816
0.505064
0.505226
0.505354
0.505326
0.505194
0.504906
0.504679
0.708693
0.710257
0.711292
0.712275
0.712912
0.713571
0.714005
0.714514
0.714865
0.715298
0.715603
0.71597
0.716216
0.71649
0.71663
0.716756
0.716735
0.716674
0.716517
0.716466
0.913856
0.915951
0.917384
0.918795
0.919765
0.920783
0.921485
0.922277
0.92282
0.923456
0.923879
0.924376
0.92468
0.925029
0.9252
0.925387
0.925402
0.925424
0.92532
0.925345
1.11758
1.12019
1.12202
1.12385
1.12514
1.12649
1.12745
1.1285
1.12924
1.13006
1.13062
1.13125
1.13164
1.13209
1.13233
1.13259
1.13267
1.13275
1.1327
1.13278
1.32055
1.32371
1.32596
1.32821
1.32983
1.33152
1.33274
1.33406
1.33499
1.33602
1.33672
1.33751
1.338
1.33856
1.33887
1.33922
1.33935
1.3395
1.33947
1.3396
1.52279
1.5265
1.52919
1.53189
1.53386
1.5359
1.53739
1.53899
1.54014
1.54139
1.54226
1.54321
1.54383
1.54452
1.54492
1.54537
1.54557
1.54579
1.54581
1.54599
1.72376
1.72808
1.73125
1.73441
1.73676
1.73917
1.74097
1.74288
1.74427
1.74577
1.74683
1.74797
1.74874
1.74958
1.7501
1.75066
1.75094
1.75124
1.75131
1.75154
1.92325
1.92817
1.93185
1.9355
1.93827
1.94109
1.94324
1.94548
1.94716
1.94894
1.95023
1.95161
1.95257
1.9536
1.95428
1.955
1.9554
1.95581
1.95597
1.95629
2.12088
2.12647
2.13069
2.13487
2.13809
2.14136
2.14389
2.14652
2.14853
2.15063
2.15222
2.15386
2.15507
2.15632
2.15719
2.15808
2.15864
2.15919
2.15946
2.15987
2.31704
2.32327
2.32806
2.3328
2.33652
2.34027
2.34323
2.34628
2.34868
2.35115
2.35307
2.35504
2.35654
2.35807
2.35919
2.36032
2.36109
2.36183
2.36227
2.36283
2.512
2.51896
2.52435
2.52968
2.53391
2.53818
2.54161
2.54512
2.54794
2.55082
2.55312
2.55546
2.55729
2.55913
2.56054
2.56194
2.56295
2.5639
2.56453
2.56525
2.70712
2.71474
2.72073
2.72663
2.73139
2.73617
2.74008
2.74407
2.74733
2.75065
2.75335
2.75608
2.75829
2.76049
2.76224
2.76395
2.76526
2.76648
2.76735
2.76829
2.90319
2.91151
2.91808
2.92456
2.92983
2.93513
2.93951
2.94397
2.94768
2.95145
2.95457
2.95772
2.96031
2.96289
2.965
2.96705
2.96866
2.97017
2.97129
2.97247
3.10186
3.11075
3.11785
3.12483
3.13058
3.13635
3.14118
3.14609
3.15024
3.15445
3.158
3.16156
3.16456
3.16753
3.17002
3.17243
3.17439
3.17622
3.17765
3.17909
3.30363
3.31308
3.32069
3.32816
3.33437
3.34058
3.34585
3.3512
3.35577
3.36041
3.36437
3.36836
3.37176
3.37514
3.37801
3.38081
3.38313
3.38531
3.38705
3.3888
3.50949
3.51941
3.52748
3.53537
3.54201
3.54863
3.55431
3.56006
3.56505
3.57008
3.57446
3.57884
3.58267
3.58644
3.58972
3.5929
3.59562
3.59815
3.60025
3.60233
3.71976
3.73009
3.73856
3.74684
3.75386
3.76083
3.76689
3.773
3.77837
3.78379
3.78856
3.79335
3.79758
3.80178
3.80547
3.80908
3.8122
3.81515
3.81764
3.82013
3.93467
3.94527
3.95406
3.9626
3.96994
3.97719
3.98358
3.98999
3.99572
4.00148
4.00664
4.01181
4.01646
4.02105
4.02519
4.02921
4.03278
4.03615
4.03908
4.04198
4.15377
4.16454
4.17358
4.18233
4.18993
4.19742
4.2041
4.2108
4.21686
4.22295
4.2285
4.23406
4.23912
4.24416
4.24874
4.25325
4.25728
4.26115
4.26455
4.26798
4.37605
4.38698
4.39623
4.40517
4.41301
4.42071
4.42767
4.43464
4.44103
4.44745
4.45338
4.45932
4.46482
4.47028
4.47534
4.4803
4.48483
4.48917
4.49307
4.49699
4.60093
4.61196
4.62141
4.63051
4.63859
4.6465
4.65373
4.66096
4.66768
4.67444
4.68074
4.68709
4.69301
4.69895
4.70446
4.70995
4.71497
4.71987
4.72429
4.72881
4.82713
4.83828
4.84794
4.8572
4.86549
4.8736
4.8811
4.88859
4.89563
4.90271
4.90939
4.91611
4.92247
4.92882
4.93482
4.94076
4.94628
4.95165
4.95657
4.96159
5.05398
5.06521
5.07506
5.08448
5.093
5.10131
5.10907
5.11682
5.12417
5.13157
5.13861
5.14572
5.15246
5.15927
5.16569
5.17213
5.1781
5.184
5.18939
5.19498
5.27988
5.29131
5.3014
5.31101
5.31978
5.32831
5.33634
5.34434
5.35199
5.35969
5.36707
5.37452
5.38164
5.38881
5.39564
5.40246
5.40885
5.41514
5.42094
5.42693
5.50444
5.51605
5.52642
5.53625
5.5453
5.55406
5.56236
5.57063
5.57857
5.58657
5.59426
5.60203
5.60948
5.61702
5.62417
5.63139
5.63812
5.64481
5.65095
5.65736
5.72648
5.73842
5.74914
5.75926
5.76862
5.77764
5.78624
5.79477
5.80301
5.81127
5.81926
5.82731
5.83506
5.84287
5.85032
5.8578
5.86482
5.87176
5.87815
5.88479
5.9463
5.95857
5.96968
5.98012
5.98982
5.99913
6.00805
6.01685
6.02537
6.0339
6.04217
6.05047
6.05847
6.06654
6.07422
6.08195
6.08916
6.09633
6.10291
6.10976
6.16357
6.17632
6.18789
6.19871
6.2088
6.21842
6.22767
6.23674
6.24556
6.25434
6.26287
6.27139
6.27962
6.28787
6.29576
6.30363
6.31101
6.31829
6.32497
6.33188
6.37923
6.39246
6.40451
6.41572
6.42621
6.43617
6.44576
6.45512
6.46423
6.47325
6.48202
6.49075
6.49918
6.50759
6.51563
6.52364
6.53112
6.53848
6.54522
6.55217
6.59365
6.60744
6.62001
6.63166
6.64257
6.65288
6.66281
6.67247
6.68187
6.69112
6.70012
6.70904
6.71765
6.7262
6.73437
6.74246
6.75002
6.75741
6.76417
6.77107
6.80788
6.82222
6.8353
6.84739
6.85873
6.86939
6.87967
6.8896
6.89928
6.90877
6.91799
6.92708
6.93586
6.94453
6.95281
6.96097
6.96858
6.97599
6.98273
6.98959
7.02249
7.0374
7.05101
7.06355
7.0753
7.08631
7.09693
7.10715
7.1171
7.1268
7.13624
7.14549
7.15443
7.1632
7.17159
7.17979
7.18746
7.19485
7.20158
7.20836
7.23825
7.25371
7.26782
7.28079
7.29294
7.30429
7.31524
7.32572
7.33593
7.34584
7.35548
7.36488
7.37396
7.38283
7.3913
7.39955
7.40724
7.41462
7.42132
7.42802
7.45557
7.47157
7.48617
7.49955
7.51209
7.52377
7.53501
7.54576
7.55621
7.56632
7.57614
7.58568
7.59489
7.60385
7.61239
7.62068
7.6284
7.63575
7.64243
7.64905
7.67483
7.69134
7.70639
7.72017
7.73307
7.74505
7.75659
7.76756
7.77825
7.78853
7.79852
7.80819
7.81752
7.82655
7.83516
7.84347
7.8512
7.85853
7.86516
7.8717
7.8962
7.9132
7.92869
7.94284
7.95608
7.96835
7.98015
7.99135
8.00224
8.01269
8.02284
8.03262
8.04205
8.05115
8.05982
8.06815
8.07589
8.08319
8.08978
8.09623
8.11979
8.13725
8.15315
8.16765
8.18122
8.19375
8.2058
8.2172
8.22828
8.23888
8.24916
8.25904
8.26856
8.27771
8.28642
8.29475
8.30249
8.30975
8.31628
8.32263
8.34562
8.36353
8.37982
8.39465
8.40851
8.42129
8.43357
8.44516
8.45641
8.46715
8.47756
8.48752
8.49712
8.5063
8.51505
8.52337
8.5311
8.53831
8.54478
8.55103
8.57365
8.59198
8.60864
8.62379
8.63793
8.65094
8.66343
8.67519
8.6866
8.69745
8.70796
8.718
8.72766
8.73687
8.74563
8.75393
8.76163
8.76877
8.77516
8.7813
8.80385
8.82259
8.83959
8.85504
8.86945
8.88268
8.89537
8.90729
8.91884
8.92979
8.9404
8.95049
8.96019
8.96942
8.97818
8.98646
8.99412
9.00118
9.00749
9.0135
9.03612
9.05525
9.0726
9.08833
9.10299
9.11642
9.12929
9.14135
9.15303
9.16407
9.17476
9.18489
9.19463
9.20385
9.2126
9.22082
9.22842
9.23539
9.24159
9.24745
9.27043
9.28994
9.30761
9.32362
9.33852
9.35214
9.36519
9.37738
9.38917
9.40029
9.41105
9.4212
9.43096
9.44017
9.44889
9.45706
9.46459
9.47145
9.47754
9.48324
9.50668
9.52656
9.54455
9.56082
9.57594
9.58975
9.60295
9.61526
9.62716
9.63835
9.64915
9.65933
9.66909
9.67826
9.68694
9.69502
9.70247
9.7092
9.71515
9.72067
9.74485
9.7651
9.78339
9.79992
9.81526
9.82924
9.84259
9.85502
9.867
9.87825
9.88909
9.89927
9.90902
9.91814
9.92677
9.93476
9.94211
9.9487
9.9545
9.95982
9.98484
10.0054
10.024
10.0408
10.0564
10.0705
10.084
10.0965
10.1086
10.1199
10.1308
10.1409
10.1507
10.1597
10.1683
10.1761
10.1834
10.1898
10.1954
10.2005
10.2267
10.2476
10.2665
10.2835
10.2993
10.3136
10.3272
10.3398
10.352
10.3633
10.3742
10.3843
10.394
10.403
10.4115
10.4192
10.4263
10.4325
10.438
10.4428
10.4702
10.4915
10.5107
10.528
10.5439
10.5584
10.5721
10.5849
10.597
10.6084
10.6193
10.6294
10.639
10.6479
10.6563
10.6639
10.6708
10.6768
10.682
10.6866
10.7155
10.7372
10.7567
10.7742
10.7903
10.8049
10.8188
10.8316
10.8438
10.8552
10.8661
10.8761
10.8857
10.8945
10.9027
10.9101
10.9169
10.9227
10.9277
10.932
10.9625
10.9845
11.0043
11.0221
11.0384
11.0532
11.0671
11.08
11.0923
11.1036
11.1145
11.1245
11.134
11.1426
11.1507
11.158
11.1645
11.1701
11.1748
11.1787
11.2111
11.2336
11.2536
11.2716
11.2881
11.3031
11.3171
11.3301
11.3424
11.3537
11.3645
11.3745
11.3838
11.3924
11.4003
11.4073
11.4136
11.419
11.4234
11.427
11.4614
11.4842
11.5046
11.5228
11.5395
11.5546
11.5688
11.5818
11.5941
11.6055
11.6162
11.6261
11.6353
11.6437
11.6514
11.6582
11.6643
11.6693
11.6734
11.6766
11.7133
11.7365
11.7572
11.7757
11.7926
11.8078
11.8221
11.8351
11.8475
11.8588
11.8695
11.8793
11.8884
11.8966
11.9041
11.9107
11.9164
11.9212
11.9249
11.9277
11.9668
11.9904
12.0114
12.0301
12.0473
12.0626
12.077
12.0901
12.1025
12.1138
12.1244
12.1341
12.143
12.151
12.1583
12.1646
12.1701
12.1745
12.1778
12.1802
12.2219
12.2459
12.2672
12.2862
12.3036
12.3191
12.3336
12.3467
12.3591
12.3704
12.3809
12.3904
12.3992
12.4071
12.4141
12.4201
12.4252
12.4292
12.4321
12.4341
12.4785
12.503
12.5246
12.5439
12.5615
12.5772
12.5917
12.605
12.6174
12.6286
12.639
12.6484
12.6571
12.6646
12.6714
12.6771
12.6819
12.6855
12.6879
12.6893
12.7366
12.7616
12.7836
12.8033
12.821
12.8369
12.8516
12.8649
12.8772
12.8884
12.8988
12.9081
12.9165
12.9238
12.9303
12.9357
12.9401
12.9432
12.9452
12.946
12.9964
13.0218
13.0442
13.0642
13.0822
13.0982
13.113
13.1264
13.1388
13.1499
13.1602
13.1693
13.1775
13.1846
13.1907
13.1958
13.1997
13.2024
13.2039
13.2041
13.2576
13.2836
13.3064
13.3267
13.345
13.3612
13.3761
13.3896
13.402
13.4131
13.4232
13.4322
13.4402
13.447
13.4528
13.4574
13.461
13.4632
13.464
13.4636
13.5203
13.5469
13.5701
13.5908
13.6094
13.6259
13.6409
13.6545
13.6669
13.6779
13.688
13.6967
13.7045
13.711
13.7165
13.7207
13.7238
13.7255
13.7257
13.7247
13.7845
13.8117
13.8354
13.8566
13.8754
13.8921
13.9074
13.921
13.9334
13.9445
13.9544
13.963
13.9705
13.9767
13.9818
13.9856
13.9881
13.9893
13.9889
13.9871
14.0503
14.0781
14.1024
14.1239
14.1431
14.1601
14.1755
14.1893
14.2017
14.2127
14.2225
14.2309
14.2382
14.2441
14.2488
14.2521
14.2541
14.2547
14.2536
14.2511
14.3174
14.346
14.3708
14.3929
14.4124
14.4297
14.4453
14.4592
14.4717
14.4827
14.4923
14.5006
14.5075
14.5131
14.5174
14.5203
14.5217
14.5217
14.5199
14.5165
14.586
14.6154
14.6408
14.6634
14.6834
14.701
14.7168
14.7308
14.7434
14.7543
14.7639
14.772
14.7787
14.7839
14.7878
14.7902
14.791
14.7903
14.7878
14.7835
14.856
14.8862
14.9123
14.9355
14.9559
14.9739
14.9899
15.0042
15.0167
15.0277
15.0372
15.0451
15.0515
15.0564
15.0598
15.0617
15.0619
15.0605
15.0572
15.052
15.1273
15.1584
15.1852
15.2091
15.23
15.2484
15.2647
15.2791
15.2918
15.3028
15.3121
15.3199
15.326
15.3306
15.3335
15.3349
15.3345
15.3323
15.3282
15.3221
15.3998
15.4319
15.4595
15.484
15.5055
15.5243
15.541
15.5557
15.5685
15.5795
15.5887
15.5963
15.6022
15.6064
15.6088
15.6096
15.6086
15.6057
15.6007
15.5936
15.6734
15.7066
15.7351
15.7603
15.7824
15.8017
15.8187
15.8337
15.8466
15.8577
15.8669
15.8744
15.8799
15.8838
15.8857
15.886
15.8843
15.8806
15.8747
15.8666
15.9479
15.9823
16.0117
16.0378
16.0604
16.0803
16.0978
16.113
16.1261
16.1373
16.1465
16.1538
16.1591
16.1626
16.1641
16.1637
16.1613
16.1569
16.1501
16.1409
16.2231
16.2587
16.2891
16.3161
16.3395
16.36
16.3779
16.3935
16.4068
16.4182
16.4273
16.4345
16.4395
16.4427
16.4437
16.4429
16.4397
16.4346
16.4268
16.4166
16.4986
16.5357
16.5672
16.5951
16.6193
16.6404
16.6588
16.6748
16.6884
16.6999
16.709
16.7161
16.721
16.7238
16.7244
16.723
16.7192
16.7133
16.7046
16.6933
16.7743
16.8128
16.8454
16.8744
16.8993
16.9212
16.9402
16.9566
16.9705
16.9822
16.9914
16.9985
17.0031
17.0057
17.0059
17.004
16.9995
16.9929
16.9834
16.9712
17.0494
17.0895
17.1233
17.1533
17.1792
17.2018
17.2214
17.2384
17.2526
17.2645
17.2738
17.281
17.2855
17.2878
17.2876
17.2853
17.2803
17.2731
17.2629
17.2499
17.3236
17.3652
17.4003
17.4315
17.4582
17.4817
17.5018
17.5194
17.534
17.5463
17.5558
17.563
17.5675
17.5697
17.5693
17.5667
17.5613
17.5537
17.5431
17.5296
17.596
17.6392
17.6755
17.7078
17.7355
17.7598
17.7806
17.7987
17.8138
17.8265
17.8363
17.8437
17.8482
17.8505
17.85
17.8473
17.8418
17.8341
17.8233
17.8097
17.8657
17.9105
17.9481
17.9815
18.01
18.0351
18.0566
18.0754
18.091
18.1042
18.1143
18.1221
18.1269
18.1294
18.129
18.1265
18.1211
18.1138
18.1034
18.0896
18.1316
18.178
18.2167
18.251
18.2805
18.3064
18.3286
18.348
18.3642
18.378
18.3886
18.3968
18.4021
18.405
18.4051
18.4031
18.3985
18.3921
18.3823
18.3681
18.3926
18.4404
18.48
18.5153
18.5454
18.5721
18.5949
18.6151
18.6319
18.6463
18.6576
18.6666
18.6725
18.6763
18.6772
18.6764
18.6731
18.6681
18.6588
18.6444
18.6475
18.6963
18.7367
18.7727
18.8034
18.8307
18.8542
18.8751
18.8927
18.9079
18.92
18.93
18.9369
18.9418
18.9441
18.9449
18.9435
18.94
18.9316
18.9176
18.8952
18.945
18.9858
19.0223
19.0536
19.0815
19.1057
19.1274
19.1458
19.162
19.1752
19.1864
19.1946
19.2012
19.2054
19.2087
19.2096
19.2078
19.2006
19.1876
19.1355
19.186
19.2272
19.2642
19.2961
19.3248
19.3498
19.3725
19.3921
19.4095
19.424
19.4366
19.4465
19.4551
19.4618
19.4679
19.4711
19.4711
19.4658
19.4543
19.3697
19.421
19.4629
19.5009
19.5339
19.564
19.5904
19.6146
19.6356
19.6546
19.6706
19.6849
19.6966
19.7074
19.7167
19.7253
19.7304
19.7324
19.7292
19.7194
19.6012
19.6544
19.6982
19.7384
19.7739
19.8065
19.8355
19.8622
19.8854
19.9065
19.9243
19.9402
19.9536
19.9663