/*--------------------------------*- C++ -*----------------------------------*\
  =========                 |
  \\      /  F ield         | OpenFOAM: The Open Source CFD Toolbox
   \\    /   O peration     | Website:  https://openfoam.org
    \\  /    A nd           | Version:  6
     \\/     M anipulation  |
\*---------------------------------------------------------------------------*/
FoamFile
{
    version     2.0;
    format      ascii;
    class       surfaceScalarField;
    location    "2";
    object      phi;
}
// * * * * * * * * * * * * * * * * * * * * * * * * * * * * * * * * * * * * * //

dimensions      [0 3 -1 0 0 0 0];

internalField   nonuniform List<scalar> 
258600
(
-1.27278e-09
-6.20635e-08
1.22542e-09
-1.39848e-09
-9.58692e-08
-1.7152e-09
-1.26555e-07
-2.0792e-09
-1.45563e-07
-2.47601e-09
-1.57028e-07
-2.77712e-09
-1.63869e-07
-3.06121e-09
-1.67994e-07
-3.24145e-09
-1.705e-07
-3.41739e-09
-1.72103e-07
-3.51513e-09
-1.7316e-07
-3.63046e-09
-1.73924e-07
-3.69206e-09
-1.74475e-07
-3.78729e-09
-1.74882e-07
-3.84787e-09
-1.75092e-07
-3.94509e-09
-1.7505e-07
-4.00695e-09
-1.74557e-07
-4.07717e-09
-1.73339e-07
-4.04802e-09
-1.70855e-07
-3.87619e-09
-1.66269e-07
-1.61075e-07
-3.5334e-09
-2.23529e-09
-6.16543e-08
2.30667e-09
-2.14059e-09
-9.55898e-08
-2.07761e-09
-1.26096e-07
-2.37205e-09
-1.44985e-07
-2.6109e-09
-1.56434e-07
-3.00418e-09
-1.63313e-07
-3.25922e-09
-1.6751e-07
-3.58228e-09
-1.70089e-07
-3.7648e-09
-1.71764e-07
-3.99818e-09
-1.72878e-07
-4.11324e-09
-1.73691e-07
-4.28435e-09
-1.74276e-07
-4.3596e-09
-1.7471e-07
-4.49089e-09
-1.74938e-07
-4.53816e-09
-1.74918e-07
-4.6271e-09
-1.74451e-07
-4.60477e-09
-1.73282e-07
-4.56717e-09
-1.70883e-07
-4.29176e-09
-1.66454e-07
-1.61344e-07
-4.01977e-09
-4.50212e-09
-6.1188e-08
4.46817e-09
-4.66282e-09
-9.52465e-08
-4.3767e-09
-1.25798e-07
-4.55873e-09
-1.44668e-07
-4.48854e-09
-1.56081e-07
-4.80501e-09
-1.62956e-07
-4.85362e-09
-1.67163e-07
-5.18304e-09
-1.69774e-07
-5.24096e-09
-1.71483e-07
-5.52226e-09
-1.72634e-07
-5.55077e-09
-1.73481e-07
-5.77488e-09
-1.74097e-07
-5.76741e-09
-1.74559e-07
-5.94257e-09
-1.74814e-07
-5.89772e-09
-1.7482e-07
-6.02121e-09
-1.74383e-07
-5.92693e-09
-1.73247e-07
-6.00006e-09
-1.70881e-07
-5.84057e-09
-1.66466e-07
-1.61325e-07
-5.95658e-09
-7.31589e-09
-6.12232e-08
7.48409e-09
-7.3374e-09
-9.51963e-08
-6.93824e-09
-1.25726e-07
-7.06261e-09
-1.44561e-07
-6.83533e-09
-1.55943e-07
-7.08721e-09
-1.62795e-07
-6.979e-09
-1.66992e-07
-7.27284e-09
-1.69603e-07
-7.20319e-09
-1.71319e-07
-7.48157e-09
-1.72484e-07
-7.4065e-09
-1.73344e-07
-7.64838e-09
-1.73976e-07
-7.55486e-09
-1.74452e-07
-7.75381e-09
-1.74721e-07
-7.6399e-09
-1.74741e-07
-7.80598e-09
-1.74316e-07
-7.67242e-09
-1.73189e-07
-7.83374e-09
-1.70827e-07
-7.66572e-09
-1.66407e-07
-1.61254e-07
-7.857e-09
-9.98215e-09
-6.12301e-08
1.015e-08
-1.0014e-08
-9.52359e-08
-9.51345e-09
-1.25764e-07
-9.61254e-09
-1.44583e-07
-9.2652e-09
-1.55938e-07
-9.47999e-09
-1.62768e-07
-9.24691e-09
-1.66946e-07
-9.51183e-09
-1.69547e-07
-9.32871e-09
-1.71257e-07
-9.59469e-09
-1.7242e-07
-9.42329e-09
-1.73283e-07
-9.66748e-09
-1.73918e-07
-9.48947e-09
-1.744e-07
-9.70858e-09
-1.74677e-07
-9.52175e-09
-1.74702e-07
-9.72151e-09
-1.74283e-07
-9.5302e-09
-1.73161e-07
-9.73904e-09
-1.70801e-07
-9.50182e-09
-1.6638e-07
-1.61225e-07
-9.74274e-09
-1.26717e-08
-6.14044e-08
1.28757e-08
-1.2631e-08
-9.54214e-08
-1.20545e-08
-1.2593e-07
-1.21086e-08
-1.44715e-07
-1.16743e-08
-1.56035e-07
-1.18521e-08
-1.62833e-07
-1.15254e-08
-1.66986e-07
-1.1764e-08
-1.69566e-07
-1.149e-08
-1.71262e-07
-1.17442e-08
-1.72415e-07
-1.14885e-08
-1.73272e-07
-1.17359e-08
-1.73904e-07
-1.14856e-08
-1.74383e-07
-1.17144e-08
-1.74658e-07
-1.14668e-08
-1.74682e-07
-1.1687e-08
-1.7426e-07
-1.14399e-08
-1.73135e-07
-1.16797e-08
-1.70771e-07
-1.13848e-08
-1.66344e-07
-1.61177e-07
-1.16612e-08
-1.52446e-08
-6.16882e-08
1.54808e-08
-1.51565e-08
-9.5708e-08
-1.44879e-08
-1.26171e-07
-1.45186e-08
-1.44913e-07
-1.40004e-08
-1.5619e-07
-1.41629e-08
-1.62956e-07
-1.37545e-08
-1.6708e-07
-1.39834e-08
-1.6964e-07
-1.36321e-08
-1.71319e-07
-1.38825e-08
-1.72461e-07
-1.3557e-08
-1.73308e-07
-1.38062e-08
-1.73934e-07
-1.34897e-08
-1.74409e-07
-1.37322e-08
-1.74682e-07
-1.34223e-08
-1.74702e-07
-1.3662e-08
-1.74279e-07
-1.33595e-08
-1.73151e-07
-1.36258e-08
-1.70784e-07
-1.32657e-08
-1.66352e-07
-1.6118e-07
-1.35771e-08
-1.77024e-08
-6.20523e-08
1.80141e-08
-1.75617e-08
-9.6084e-08
-1.68354e-08
-1.26495e-07
-1.68321e-08
-1.4519e-07
-1.62611e-08
-1.5642e-07
-1.64013e-08
-1.63149e-07
-1.59392e-08
-1.6724e-07
-1.61549e-08
-1.69775e-07
-1.57485e-08
-1.71432e-07
-1.59942e-08
-1.72558e-07
-1.56125e-08
-1.73391e-07
-1.58653e-08
-1.74006e-07
-1.54974e-08
-1.7447e-07
-1.57441e-08
-1.74734e-07
-1.53875e-08
-1.74747e-07
-1.56376e-08
-1.74314e-07
-1.52876e-08
-1.73176e-07
-1.55725e-08
-1.708e-07
-1.51633e-08
-1.66358e-07
-1.6117e-07
-1.54989e-08
-2.00435e-08
-6.24253e-08
2.03614e-08
-1.98328e-08
-9.64837e-08
-1.90783e-08
-1.26867e-07
-1.90311e-08
-1.45517e-07
-1.84305e-08
-1.56709e-07
-1.85473e-08
-1.634e-07
-1.80537e-08
-1.67461e-07
-1.82574e-08
-1.69969e-07
-1.78162e-08
-1.71605e-07
-1.80562e-08
-1.72713e-07
-1.76378e-08
-1.7353e-07
-1.78888e-08
-1.74132e-07
-1.74783e-08
-1.74585e-07
-1.77332e-08
-1.7484e-07
-1.73305e-08
-1.74843e-07
-1.75927e-08
-1.74404e-07
-1.71987e-08
-1.73258e-07
-1.75005e-08
-1.70874e-07
-1.70366e-08
-1.66424e-07
-1.61225e-07
-1.73954e-08
-2.21946e-08
-6.26922e-08
2.26072e-08
-2.19923e-08
-9.68123e-08
-2.11899e-08
-1.27184e-07
-2.113e-08
-1.45811e-07
-2.04974e-08
-1.56977e-07
-2.06063e-08
-1.63642e-07
-2.00872e-08
-1.67681e-07
-2.02893e-08
-1.7017e-07
-1.98217e-08
-1.71789e-07
-2.0065e-08
-1.72883e-07
-1.96152e-08
-1.73688e-07
-1.98737e-08
-1.74279e-07
-1.9432e-08
-1.74722e-07
-1.96909e-08
-1.74965e-07
-1.92568e-08
-1.74959e-07
-1.95263e-08
-1.74507e-07
-1.90965e-08
-1.73351e-07
-1.94113e-08
-1.70955e-07
-1.8908e-08
-1.66493e-07
-1.61274e-07
-1.92828e-08
-2.45039e-08
-6.30676e-08
2.50311e-08
-2.41873e-08
-9.71895e-08
-2.32997e-08
-1.27521e-07
-2.31971e-08
-1.46107e-07
-2.25177e-08
-1.57245e-07
-2.26173e-08
-1.63887e-07
-2.20687e-08
-1.67911e-07
-2.22743e-08
-1.70387e-07
-2.17821e-08
-1.71998e-07
-2.20315e-08
-1.73083e-07
-2.15574e-08
-1.73882e-07
-2.18215e-08
-1.74466e-07
-2.13491e-08
-1.74904e-07
-2.16194e-08
-1.75142e-07
-2.1149e-08
-1.7513e-07
-2.14313e-08
-1.74673e-07
-2.09653e-08
-1.7351e-07
-2.12942e-08
-1.71108e-07
-2.07433e-08
-1.6664e-07
-1.6141e-07
-2.11343e-08
-2.66188e-08
-6.34076e-08
2.72846e-08
-2.62798e-08
-9.75292e-08
-2.5331e-08
-1.27817e-07
-2.52214e-08
-1.46378e-07
-2.45066e-08
-1.57494e-07
-2.46061e-08
-1.64125e-07
-2.40321e-08
-1.6814e-07
-2.42409e-08
-1.70612e-07
-2.37249e-08
-1.72219e-07
-2.39798e-08
-1.73302e-07
-2.34794e-08
-1.74097e-07
-2.37515e-08
-1.74679e-07
-2.32533e-08
-1.75112e-07
-2.35273e-08
-1.75345e-07
-2.30315e-08
-1.75327e-07
-2.33192e-08
-1.74863e-07
-2.28234e-08
-1.73692e-07
-2.31616e-08
-1.71281e-07
-2.25772e-08
-1.66804e-07
-1.61555e-07
-2.29774e-08
-2.86776e-08
-6.37382e-08
2.93802e-08
-2.83289e-08
-9.79036e-08
-2.7373e-08
-1.28171e-07
-2.72467e-08
-1.4671e-07
-2.65157e-08
-1.57807e-07
-2.66013e-08
-1.64426e-07
-2.60084e-08
-1.68432e-07
-2.62071e-08
-1.70899e-07
-2.56712e-08
-1.72503e-07
-2.592e-08
-1.73583e-07
-2.53997e-08
-1.74377e-07
-2.56669e-08
-1.74957e-07
-2.51441e-08
-1.75388e-07
-2.54205e-08
-1.7562e-07
-2.48956e-08
-1.756e-07
-2.51881e-08
-1.75134e-07
-2.46631e-08
-1.7396e-07
-2.50077e-08
-1.71547e-07
-2.4384e-08
-1.67068e-07
-1.61809e-07
-2.47888e-08
-3.07132e-08
-6.41601e-08
3.14216e-08
-3.03445e-08
-9.83506e-08
-2.9398e-08
-1.28583e-07
-2.92601e-08
-1.47088e-07
-2.85251e-08
-1.5816e-07
-2.85952e-08
-1.6476e-07
-2.79879e-08
-1.68755e-07
-2.81725e-08
-1.71215e-07
-2.76184e-08
-1.72815e-07
-2.78578e-08
-1.73894e-07
-2.73157e-08
-1.74686e-07
-2.75793e-08
-1.75267e-07
-2.70352e-08
-1.75697e-07
-2.7308e-08
-1.75928e-07
-2.67616e-08
-1.75906e-07
-2.70535e-08
-1.75438e-07
-2.65044e-08
-1.74261e-07
-2.68509e-08
-1.71846e-07
-2.62003e-08
-1.67362e-07
-1.6209e-07
-2.66044e-08
-3.26761e-08
-6.46896e-08
3.33083e-08
-3.23169e-08
-9.8893e-08
-3.13864e-08
-1.29066e-07
-3.12538e-08
-1.47526e-07
-3.05204e-08
-1.58565e-07
-3.05827e-08
-1.65145e-07
-2.99668e-08
-1.69127e-07
-3.01384e-08
-1.71582e-07
-2.95721e-08
-1.73178e-07
-2.97956e-08
-1.74258e-07
-2.92424e-08
-1.75052e-07
-2.94901e-08
-1.75634e-07
-2.89336e-08
-1.76067e-07
-2.91928e-08
-1.76301e-07
-2.86329e-08
-1.76282e-07
-2.89138e-08
-1.75816e-07
-2.83508e-08
-1.74641e-07
-2.86849e-08
-1.72227e-07
-2.80167e-08
-1.67747e-07
-1.62465e-07
-2.84064e-08
-3.44852e-08
-6.5207e-08
3.5004e-08
-3.41852e-08
-9.94454e-08
-3.33199e-08
-1.29571e-07
-3.32111e-08
-1.47994e-07
-3.25041e-08
-1.59002e-07
-3.25648e-08
-1.65565e-07
-3.19542e-08
-1.69533e-07
-3.21111e-08
-1.71983e-07
-3.15403e-08
-1.73575e-07
-3.17473e-08
-1.74657e-07
-3.1184e-08
-1.7545e-07
-3.14165e-08
-1.76038e-07
-3.08476e-08
-1.76471e-07
-3.10942e-08
-1.76711e-07
-3.05203e-08
-1.76691e-07
-3.07899e-08
-1.76232e-07
-3.02111e-08
-1.75055e-07
-3.05352e-08
-1.72647e-07
-2.98525e-08
-1.68165e-07
-1.62878e-07
-3.02257e-08
-3.6187e-08
-6.56996e-08
3.65965e-08
-3.59755e-08
-1.00012e-07
-3.52084e-08
-1.30108e-07
-3.5131e-08
-1.48508e-07
-3.44802e-08
-1.59491e-07
-3.45336e-08
-1.66038e-07
-3.3952e-08
-1.69992e-07
-3.40844e-08
-1.72436e-07
-3.35299e-08
-1.74022e-07
-3.37038e-08
-1.75103e-07
-3.31536e-08
-1.75895e-07
-3.33493e-08
-1.76484e-07
-3.27936e-08
-1.76919e-07
-3.30009e-08
-1.7716e-07
-3.24403e-08
-1.77144e-07
-3.26704e-08
-1.76685e-07
-3.21058e-08
-1.75512e-07
-3.23879e-08
-1.73104e-07
-3.17229e-08
-1.68626e-07
-1.63326e-07
-3.20535e-08
-3.79275e-08
-6.61304e-08
3.82486e-08
-3.77416e-08
-1.00514e-07
-3.71008e-08
-1.30614e-07
-3.70309e-08
-1.49e-07
-3.64498e-08
-1.59972e-07
-3.64902e-08
-1.66508e-07
-3.59477e-08
-1.70455e-07
-3.6055e-08
-1.72895e-07
-3.55236e-08
-1.74479e-07
-3.56686e-08
-1.75561e-07
-3.51315e-08
-1.76354e-07
-3.52985e-08
-1.76948e-07
-3.47477e-08
-1.77384e-07
-3.49304e-08
-1.77634e-07
-3.43696e-08
-1.77617e-07
-3.45761e-08
-1.77167e-07
-3.40084e-08
-1.75993e-07
-3.42648e-08
-1.73595e-07
-3.36027e-08
-1.69117e-07
-1.63815e-07
-3.38999e-08
-3.9695e-08
-6.63982e-08
3.99668e-08
-3.95789e-08
-1.00879e-07
-3.90053e-08
-1.31003e-07
-3.89533e-08
-1.49399e-07
-3.84236e-08
-1.60378e-07
-3.84541e-08
-1.66918e-07
-3.79527e-08
-1.70871e-07
-3.80318e-08
-1.73317e-07
-3.75359e-08
-1.74908e-07
-3.764e-08
-1.75997e-07
-3.71377e-08
-1.76796e-07
-3.72539e-08
-1.77395e-07
-3.67423e-08
-1.77838e-07
-3.68644e-08
-1.78089e-07
-3.6346e-08
-1.78078e-07
-3.64867e-08
-1.77627e-07
-3.59624e-08
-1.76458e-07
-3.61486e-08
-1.74057e-07
-3.55428e-08
-1.69581e-07
-1.6426e-07
-3.5771e-08
-4.16689e-08
-6.66614e-08
4.19214e-08
-4.15508e-08
-1.01193e-07
-4.10095e-08
-1.31333e-07
-4.09578e-08
-1.49742e-07
-4.04583e-08
-1.60732e-07
-4.04734e-08
-1.67288e-07
-3.99992e-08
-1.71253e-07
-4.00492e-08
-1.73715e-07
-3.95784e-08
-1.75316e-07
-3.96461e-08
-1.7642e-07
-3.91654e-08
-1.77227e-07
-3.92427e-08
-1.7784e-07
-3.87451e-08
-1.78287e-07
-3.88335e-08
-1.78554e-07
-3.83235e-08
-1.78544e-07
-3.84304e-08
-1.78108e-07
-3.79133e-08
-1.76937e-07
-3.80605e-08
-1.74549e-07
-3.74722e-08
-1.70072e-07
-1.64752e-07
-3.76524e-08
-4.36974e-08
-6.68608e-08
4.39509e-08
-4.36261e-08
-1.01494e-07
-4.31231e-08
-1.31651e-07
-4.30583e-08
-1.5008e-07
-4.25922e-08
-1.61074e-07
-4.25662e-08
-1.67641e-07
-4.21247e-08
-1.71612e-07
-4.21207e-08
-1.74085e-07
-4.16852e-08
-1.75694e-07
-4.16888e-08
-1.76807e-07
-4.1249e-08
-1.77623e-07
-4.12549e-08
-1.78242e-07
-4.08097e-08
-1.78697e-07
-4.0814e-08
-1.78963e-07
-4.03644e-08
-1.7896e-07
-4.03815e-08
-1.78519e-07
-3.99287e-08
-1.77351e-07
-3.99808e-08
-1.74953e-07
-3.9477e-08
-1.70473e-07
-1.65128e-07
-3.95677e-08
-4.59396e-08
-6.72353e-08
4.61762e-08
-4.57649e-08
-1.01897e-07
-4.53394e-08
-1.32054e-07
-4.52131e-08
-1.50475e-07
-4.47994e-08
-1.61463e-07
-4.47108e-08
-1.68029e-07
-4.43064e-08
-1.71999e-07
-4.42374e-08
-1.74476e-07
-4.38323e-08
-1.76086e-07
-4.37724e-08
-1.77208e-07
-4.33589e-08
-1.78024e-07
-4.33048e-08
-1.78653e-07
-4.28767e-08
-1.79107e-07
-4.28324e-08
-1.79385e-07
-4.23938e-08
-1.79379e-07
-4.23649e-08
-1.7895e-07
-4.19224e-08
-1.77776e-07
-4.19237e-08
-1.75389e-07
-4.14446e-08
-1.709e-07
-1.65555e-07
-4.14756e-08
-4.80856e-08
-6.74578e-08
4.83025e-08
-4.79196e-08
-1.02203e-07
-4.75645e-08
-1.32384e-07
-4.73927e-08
-1.50814e-07
-4.70345e-08
-1.61805e-07
-4.68788e-08
-1.68371e-07
-4.65219e-08
-1.72341e-07
-4.63752e-08
-1.74818e-07
-4.60152e-08
-1.7643e-07
-4.5871e-08
-1.77551e-07
-4.55056e-08
-1.78369e-07
-4.53612e-08
-1.78996e-07
-4.49934e-08
-1.79452e-07
-4.48474e-08
-1.79722e-07
-4.44787e-08
-1.79716e-07
-4.43416e-08
-1.79273e-07
-4.39741e-08
-1.78096e-07
-4.38638e-08
-1.75689e-07
-4.3484e-08
-1.71189e-07
-1.65809e-07
-4.34127e-08
-5.03795e-08
-6.77242e-08
5.05869e-08
-5.01513e-08
-1.0251e-07
-4.98386e-08
-1.3271e-07
-4.96148e-08
-1.5115e-07
-4.92934e-08
-1.62144e-07
-4.90748e-08
-1.68715e-07
-4.87493e-08
-1.72685e-07
-4.85326e-08
-1.75165e-07
-4.82008e-08
-1.76775e-07
-4.79857e-08
-1.77898e-07
-4.76454e-08
-1.78713e-07
-4.74335e-08
-1.79342e-07
-4.70817e-08
-1.79792e-07
-4.688e-08
-1.80067e-07
-4.6521e-08
-1.80052e-07
-4.63323e-08
-1.79613e-07
-4.59734e-08
-1.78424e-07
-4.58065e-08
-1.7602e-07
-4.54509e-08
-1.71503e-07
-1.66118e-07
-4.53155e-08
-5.26541e-08
-6.79034e-08
5.28787e-08
-5.24379e-08
-1.028e-07
-5.21596e-08
-1.33026e-07
-5.18777e-08
-1.51478e-07
-5.15876e-08
-1.62467e-07
-5.12897e-08
-1.69031e-07
-5.09964e-08
-1.72992e-07
-5.06944e-08
-1.75463e-07
-5.03975e-08
-1.77066e-07
-5.00932e-08
-1.78179e-07
-4.9794e-08
-1.78989e-07
-4.94891e-08
-1.79606e-07
-4.9192e-08
-1.80051e-07
-4.88868e-08
-1.8031e-07
-4.85933e-08
-1.80289e-07
-4.82945e-08
-1.79829e-07
-4.8008e-08
-1.78629e-07
-4.77274e-08
-1.76196e-07
-4.74683e-08
-1.71659e-07
-1.66232e-07
-4.72308e-08
-5.5132e-08
-6.83198e-08
5.53654e-08
-5.47425e-08
-1.03203e-07
-5.45034e-08
-1.3342e-07
-5.41263e-08
-1.51849e-07
-5.38654e-08
-1.62824e-07
-5.34875e-08
-1.69369e-07
-5.32151e-08
-1.73316e-07
-5.28386e-08
-1.75774e-07
-5.25597e-08
-1.77366e-07
-5.2186e-08
-1.7847e-07
-5.19023e-08
-1.79269e-07
-5.15332e-08
-1.7988e-07
-5.12446e-08
-1.80313e-07
-5.08857e-08
-1.80569e-07
-5.05956e-08
-1.80534e-07
-5.02467e-08
-1.80071e-07
-4.99623e-08
-1.78854e-07
-4.96272e-08
-1.76415e-07
-4.93836e-08
-1.71854e-07
-1.66416e-07
-4.90842e-08
-5.73154e-08
-6.84375e-08
5.75479e-08
-5.69718e-08
-1.0341e-07
-5.67525e-08
-1.33667e-07
-5.63361e-08
-1.52109e-07
-5.60866e-08
-1.63085e-07
-5.56503e-08
-1.69622e-07
-5.53923e-08
-1.73564e-07
-5.49509e-08
-1.76011e-07
-5.46904e-08
-1.77596e-07
-5.42458e-08
-1.78689e-07
-5.39868e-08
-1.79481e-07
-5.35412e-08
-1.8008e-07
-5.32885e-08
-1.80507e-07
-5.28434e-08
-1.80746e-07
-5.25986e-08
-1.80703e-07
-5.21559e-08
-1.80217e-07
-5.19242e-08
-1.78987e-07
-5.14908e-08
-1.76516e-07
-5.13185e-08
-1.71931e-07
-1.66451e-07
-5.09299e-08
-5.96588e-08
-6.86104e-08
5.99319e-08
-5.92464e-08
-1.03604e-07
-5.90066e-08
-1.33889e-07
-5.85448e-08
-1.52342e-07
-5.82826e-08
-1.63326e-07
-5.78015e-08
-1.69864e-07
-5.75357e-08
-1.73806e-07
-5.70466e-08
-1.76251e-07
-5.67816e-08
-1.77835e-07
-5.62883e-08
-1.78926e-07
-5.60257e-08
-1.79715e-07
-5.55318e-08
-1.8031e-07
-5.52725e-08
-1.8073e-07
-5.47831e-08
-1.80964e-07
-5.45293e-08
-1.80911e-07
-5.40439e-08
-1.80419e-07
-5.38017e-08
-1.79172e-07
-5.33215e-08
-1.7669e-07
-5.31477e-08
-1.7208e-07
-1.66583e-07
-5.27044e-08
-6.19379e-08
-6.8659e-08
6.22364e-08
-6.15438e-08
-1.03732e-07
-6.12723e-08
-1.34066e-07
-6.07801e-08
-1.52547e-07
-6.04889e-08
-1.63543e-07
-5.99656e-08
-1.70088e-07
-5.96796e-08
-1.74033e-07
-5.91431e-08
-1.76479e-07
-5.88656e-08
-1.78063e-07
-5.83196e-08
-1.79152e-07
-5.80525e-08
-1.7994e-07
-5.75004e-08
-1.8053e-07
-5.72454e-08
-1.80947e-07
-5.66921e-08
-1.81171e-07
-5.64497e-08
-1.81112e-07
-5.58945e-08
-1.80603e-07
-5.56708e-08
-1.79345e-07
-5.5117e-08
-1.76837e-07
-5.49717e-08
-1.72203e-07
-1.6667e-07
-5.44583e-08
-6.43609e-08
-6.88635e-08
6.46966e-08
-6.38915e-08
-1.03987e-07
-6.35846e-08
-1.34354e-07
-6.30409e-08
-1.5285e-07
-6.2718e-08
-1.63851e-07
-6.21466e-08
-1.70397e-07
-6.1831e-08
-1.74341e-07
-6.12474e-08
-1.76786e-07
-6.09429e-08
-1.78368e-07
-6.03519e-08
-1.79455e-07
-6.00588e-08
-1.80241e-07
-5.94643e-08
-1.80828e-07
-5.91838e-08
-1.81241e-07
-5.85897e-08
-1.8146e-07
-5.83219e-08
-1.81393e-07
-5.77286e-08
-1.80876e-07
-5.74784e-08
-1.79604e-07
-5.68851e-08
-1.77083e-07
-5.67178e-08
-1.72427e-07
-1.66871e-07
-5.61577e-08
-6.67605e-08
-6.91499e-08
6.71203e-08
-6.62394e-08
-1.04339e-07
-6.58969e-08
-1.34734e-07
-6.53031e-08
-1.5324e-07
-6.4949e-08
-1.64242e-07
-6.4328e-08
-1.70783e-07
-6.39824e-08
-1.74723e-07
-6.33498e-08
-1.77162e-07
-6.3017e-08
-1.78741e-07
-6.23765e-08
-1.79823e-07
-6.20588e-08
-1.80606e-07
-6.14134e-08
-1.81187e-07
-6.11111e-08
-1.81596e-07
-6.04671e-08
-1.81808e-07
-6.01805e-08
-1.81735e-07
-5.95356e-08
-1.81206e-07
-5.92721e-08
-1.79924e-07
-5.86255e-08
-1.77383e-07
-5.84472e-08
-1.72706e-07
-1.67121e-07
-5.7834e-08
-6.91449e-08
-6.95161e-08
6.953e-08
-6.85612e-08
-1.04765e-07
-6.81902e-08
-1.3519e-07
-6.75487e-08
-1.53706e-07
-6.71634e-08
-1.64711e-07
-6.6498e-08
-1.71249e-07
-6.61187e-08
-1.75186e-07
-6.54428e-08
-1.77621e-07
-6.50747e-08
-1.79197e-07
-6.43932e-08
-1.80275e-07
-6.40382e-08
-1.81054e-07
-6.33548e-08
-1.81631e-07
-6.30156e-08
-1.82036e-07
-6.23331e-08
-1.82242e-07
-6.20101e-08
-1.82162e-07
-6.133e-08
-1.81624e-07
-6.10283e-08
-1.8033e-07
-6.03478e-08
-1.77774e-07
-6.01329e-08
-1.73076e-07
-1.67465e-07
-5.94811e-08
-7.146e-08
-6.98568e-08
7.18451e-08
-7.0872e-08
-1.05211e-07
-7.04615e-08
-1.35685e-07
-6.97887e-08
-1.54225e-07
-6.93633e-08
-1.6524e-07
-6.86606e-08
-1.71781e-07
-6.82425e-08
-1.75718e-07
-6.75274e-08
-1.78152e-07
-6.71212e-08
-1.79726e-07
-6.63986e-08
-1.80801e-07
-6.60075e-08
-1.81578e-07
-6.52812e-08
-1.8215e-07
-6.49053e-08
-1.82552e-07
-6.41829e-08
-1.82753e-07
-6.38233e-08
-1.82667e-07
-6.31031e-08
-1.82121e-07
-6.2769e-08
-1.80818e-07
-6.20477e-08
-1.78246e-07
-6.17987e-08
-1.73529e-07
-1.6789e-07
-6.11064e-08
-7.38389e-08
-7.02615e-08
7.42681e-08
-7.32047e-08
-1.05719e-07
-7.27492e-08
-1.36243e-07
-7.2036e-08
-1.54805e-07
-7.15655e-08
-1.65831e-07
-7.08242e-08
-1.72375e-07
-7.03613e-08
-1.76313e-07
-6.96084e-08
-1.78745e-07
-6.91574e-08
-1.80318e-07
-6.83989e-08
-1.8139e-07
-6.79614e-08
-1.82165e-07
-6.72016e-08
-1.82735e-07
-6.6781e-08
-1.83133e-07
-6.60228e-08
-1.83328e-07
-6.562e-08
-1.83236e-07
-6.48665e-08
-1.82681e-07
-6.44872e-08
-1.81366e-07
-6.37356e-08
-1.7878e-07
-6.34427e-08
-1.74042e-07
-1.68372e-07
-6.27184e-08
-7.62454e-08
-7.07526e-08
7.67128e-08
-7.55617e-08
-1.06314e-07
-7.50454e-08
-1.36876e-07
-7.42906e-08
-1.55459e-07
-7.37683e-08
-1.66492e-07
-7.29883e-08
-1.73038e-07
-7.24766e-08
-1.76976e-07
-7.16863e-08
-1.79406e-07
-7.11883e-08
-1.80977e-07
-7.03917e-08
-1.82047e-07
-6.99095e-08
-1.8282e-07
-6.91103e-08
-1.83386e-07
-6.86436e-08
-1.83782e-07
-6.78501e-08
-1.83972e-07
-6.74007e-08
-1.83875e-07
-6.66117e-08
-1.83313e-07
-6.619e-08
-1.81989e-07
-6.54029e-08
-1.79387e-07
-6.50651e-08
-1.74631e-07
-1.68932e-07
-6.43074e-08
-7.86389e-08
-7.12711e-08
7.91468e-08
-7.79038e-08
-1.0693e-07
-7.73394e-08
-1.37539e-07
-7.6542e-08
-1.56142e-07
-7.59686e-08
-1.67188e-07
-7.51506e-08
-1.73737e-07
-7.45877e-08
-1.77677e-07
-7.37612e-08
-1.80106e-07
-7.32118e-08
-1.81678e-07
-7.23809e-08
-1.82747e-07
-7.18458e-08
-1.83518e-07
-7.10146e-08
-1.84082e-07
-7.04972e-08
-1.84474e-07
-6.96684e-08
-1.84659e-07
-6.91705e-08
-1.84557e-07
-6.83483e-08
-1.83984e-07
-6.78762e-08
-1.82648e-07
-6.70596e-08
-1.80031e-07
-6.66737e-08
-1.75252e-07
-1.6952e-07
-6.58873e-08
-8.09842e-08
-7.17413e-08
8.15024e-08
-8.02526e-08
-1.07542e-07
-7.96282e-08
-1.38215e-07
-7.88031e-08
-1.56856e-07
-7.81695e-08
-1.67921e-07
-7.73184e-08
-1.74481e-07
-7.66985e-08
-1.78426e-07
-7.58374e-08
-1.80859e-07
-7.52334e-08
-1.82433e-07
-7.43659e-08
-1.83501e-07
-7.37792e-08
-1.84273e-07
-7.29089e-08
-1.84834e-07
-7.2339e-08
-1.85224e-07
-7.1475e-08
-1.85405e-07
-7.0924e-08
-1.85297e-07
-7.00662e-08
-1.84717e-07
-6.95457e-08
-1.83371e-07
-6.86937e-08
-1.80738e-07
-6.82574e-08
-1.75939e-07
-1.70175e-07
-6.74398e-08
-8.34134e-08
-7.22591e-08
8.39853e-08
-8.26362e-08
-1.08196e-07
-8.19525e-08
-1.38936e-07
-8.10847e-08
-1.57613e-07
-8.03901e-08
-1.68698e-07
-7.94986e-08
-1.75267e-07
-7.88188e-08
-1.79218e-07
-7.79189e-08
-1.81652e-07
-7.72559e-08
-1.83227e-07
-7.63516e-08
-1.84295e-07
-7.5705e-08
-1.85065e-07
-7.48005e-08
-1.85625e-07
-7.41738e-08
-1.86011e-07
-7.32721e-08
-1.86186e-07
-7.26671e-08
-1.86071e-07
-7.17738e-08
-1.85481e-07
-7.11978e-08
-1.84121e-07
-7.03144e-08
-1.8147e-07
-6.9826e-08
-1.76646e-07
-1.70845e-07
-6.89796e-08
-8.58838e-08
-7.28579e-08
8.65019e-08
-8.50555e-08
-1.08932e-07
-8.42977e-08
-1.39729e-07
-8.33832e-08
-1.5844e-07
-8.26223e-08
-1.69541e-07
-8.16871e-08
-1.76119e-07
-8.09444e-08
-1.80072e-07
-8.00025e-08
-1.82508e-07
-7.92788e-08
-1.84082e-07
-7.83323e-08
-1.85148e-07
-7.76282e-08
-1.85916e-07
-7.66801e-08
-1.86472e-07
-7.59949e-08
-1.86854e-07
-7.50543e-08
-1.87025e-07
-7.43908e-08
-1.86902e-07
-7.34584e-08
-1.86303e-07
-7.28287e-08
-1.84931e-07
-7.19072e-08
-1.82262e-07
-7.13637e-08
-1.77413e-07
-1.71576e-07
-7.04849e-08
-8.8356e-08
-7.34929e-08
8.90212e-08
-8.74662e-08
-1.09696e-07
-8.66498e-08
-1.40559e-07
-8.56826e-08
-1.59304e-07
-8.48586e-08
-1.70425e-07
-8.3876e-08
-1.7701e-07
-8.30697e-08
-1.80968e-07
-8.20833e-08
-1.83404e-07
-8.12959e-08
-1.84978e-07
-8.03076e-08
-1.86042e-07
-7.95384e-08
-1.86808e-07
-7.85515e-08
-1.8736e-07
-7.78041e-08
-1.87736e-07
-7.68216e-08
-1.87899e-07
-7.60987e-08
-1.87768e-07
-7.51268e-08
-1.87155e-07
-7.44365e-08
-1.85768e-07
-7.34803e-08
-1.83078e-07
-7.28798e-08
-1.782e-07
-1.72321e-07
-7.19699e-08
-9.07847e-08
-7.40928e-08
9.14695e-08
-8.98869e-08
-1.10473e-07
-8.89976e-08
-1.41419e-07
-8.79903e-08
-1.60213e-07
-8.70936e-08
-1.71359e-07
-8.60665e-08
-1.77959e-07
-8.51911e-08
-1.81922e-07
-8.41597e-08
-1.84361e-07
-8.33058e-08
-1.85934e-07
-8.22714e-08
-1.86996e-07
-8.1439e-08
-1.87759e-07
-8.04041e-08
-1.88305e-07
-7.95928e-08
-1.88677e-07
-7.85669e-08
-1.88833e-07
-7.778e-08
-1.88692e-07
-7.67647e-08
-1.88069e-07
-7.60156e-08
-1.86666e-07
-7.50172e-08
-1.83955e-07
-7.4357e-08
-1.79048e-07
-1.73129e-07
-7.34116e-08
-9.32972e-08
-7.47681e-08
9.40463e-08
-9.23336e-08
-1.11315e-07
-9.13721e-08
-1.42343e-07
-9.03073e-08
-1.61183e-07
-8.93378e-08
-1.72353e-07
-8.82578e-08
-1.78963e-07
-8.73112e-08
-1.82931e-07
-8.62298e-08
-1.85369e-07
-8.53056e-08
-1.8694e-07
-8.42242e-08
-1.87999e-07
-8.33205e-08
-1.88757e-07
-8.2242e-08
-1.89298e-07
-8.13625e-08
-1.89662e-07
-8.02899e-08
-1.89808e-07
-7.9438e-08
-1.89656e-07
-7.83787e-08
-1.89017e-07
-7.75635e-08
-1.87595e-07
-7.65262e-08
-1.8486e-07
-7.5804e-08
-1.79919e-07
-1.73953e-07
-7.4824e-08
-9.58235e-08
-7.55348e-08
9.66296e-08
-9.47967e-08
-1.1225e-07
-9.37468e-08
-1.4335e-07
-9.26233e-08
-1.62232e-07
-9.15754e-08
-1.73423e-07
-9.04408e-08
-1.80042e-07
-8.942e-08
-1.84011e-07
-8.82866e-08
-1.86448e-07
-8.72906e-08
-1.88016e-07
-8.6157e-08
-1.89069e-07
-8.51848e-08
-1.89821e-07
-8.40527e-08
-1.90355e-07
-8.31039e-08
-1.90711e-07
-8.19826e-08
-1.90847e-07
-8.10613e-08
-1.90684e-07
-7.99534e-08
-1.90031e-07
-7.90741e-08
-1.88591e-07
-7.79898e-08
-1.8583e-07
-7.72028e-08
-1.80856e-07
-1.74844e-07
-7.61833e-08
-9.83186e-08
-7.63355e-08
9.91729e-08
-9.72223e-08
-1.13206e-07
-9.61037e-08
-1.44389e-07
-9.49187e-08
-1.63315e-07
-9.3797e-08
-1.74532e-07
-9.26063e-08
-1.81162e-07
-9.15114e-08
-1.85136e-07
-9.03243e-08
-1.87573e-07
-8.92539e-08
-1.89138e-07
-8.80691e-08
-1.90188e-07
-8.70206e-08
-1.90934e-07
-8.58402e-08
-1.91461e-07
-8.48177e-08
-1.91807e-07
-8.36447e-08
-1.91932e-07
-8.26527e-08
-1.91755e-07
-8.14958e-08
-1.91085e-07
-8.05446e-08
-1.89623e-07
-7.94166e-08
-1.86835e-07
-7.85623e-08
-1.81821e-07
-1.75758e-07
-7.75036e-08
-1.00725e-07
-7.70523e-08
1.01594e-07
-9.96361e-08
-1.1414e-07
-9.84357e-08
-1.45434e-07
-9.72092e-08
-1.64429e-07
-9.60028e-08
-1.75684e-07
-9.47617e-08
-1.82335e-07
-9.35859e-08
-1.86319e-07
-9.23458e-08
-1.88759e-07
-9.11973e-08
-1.90325e-07
-8.99567e-08
-1.91372e-07
-8.88336e-08
-1.92114e-07
-8.75946e-08
-1.92633e-07
-8.64968e-08
-1.92972e-07
-8.52694e-08
-1.93086e-07
-8.42022e-08
-1.92896e-07
-8.29906e-08
-1.92209e-07
-8.19699e-08
-1.90727e-07
-8.07889e-08
-1.8791e-07
-7.98648e-08
-1.82857e-07
-1.76743e-07
-7.87609e-08
-1.03212e-07
-7.78255e-08
1.04142e-07
-1.02067e-07
-1.15122e-07
-1.00791e-07
-1.46534e-07
-9.95054e-08
-1.65599e-07
-9.82165e-08
-1.76894e-07
-9.69146e-08
-1.83566e-07
-9.56559e-08
-1.8756e-07
-9.43552e-08
-1.90005e-07
-9.31241e-08
-1.9157e-07
-9.18248e-08
-1.92615e-07
-9.06178e-08
-1.9335e-07
-8.93231e-08
-1.93863e-07
-8.81445e-08
-1.94191e-07
-8.68583e-08
-1.94294e-07
-8.57135e-08
-1.94088e-07
-8.44461e-08
-1.93382e-07
-8.3347e-08
-1.91874e-07
-8.21158e-08
-1.89026e-07
-8.11185e-08
-1.83929e-07
-1.77757e-07
-7.99693e-08
-1.05733e-07
-7.86861e-08
1.06723e-07
-1.04529e-07
-1.16199e-07
-1.03161e-07
-1.4772e-07
-1.0181e-07
-1.66856e-07
-1.00432e-07
-1.78189e-07
-9.90639e-08
-1.84882e-07
-9.77179e-08
-1.88886e-07
-9.63506e-08
-1.91334e-07
-9.50341e-08
-1.92898e-07
-9.36672e-08
-1.93938e-07
-9.23784e-08
-1.94668e-07
-9.10144e-08
-1.95171e-07
-8.97538e-08
-1.9549e-07
-8.84033e-08
-1.9558e-07
-8.7177e-08
-1.95359e-07
-8.58458e-08
-1.94634e-07
-8.46712e-08
-1.93102e-07
-8.33784e-08
-1.9022e-07
-8.23062e-08
-1.85079e-07
-1.78849e-07
-8.11042e-08
-1.08253e-07
-7.96081e-08
1.09303e-07
-1.0697e-07
-1.1733e-07
-1.05531e-07
-1.48972e-07
-1.04105e-07
-1.68179e-07
-1.02645e-07
-1.79554e-07
-1.01201e-07
-1.86268e-07
-9.97679e-08
-1.90282e-07
-9.83268e-08
-1.92733e-07
-9.69213e-08
-1.94295e-07
-9.54837e-08
-1.95331e-07
-9.41038e-08
-1.96053e-07
-9.26733e-08
-1.96548e-07
-9.13242e-08
-1.96854e-07
-8.99052e-08
-1.9693e-07
-8.85937e-08
-1.96691e-07
-8.71977e-08
-1.95944e-07
-8.59374e-08
-1.94383e-07
-8.4586e-08
-1.91466e-07
-8.3434e-08
-1.86274e-07
-1.79979e-07
-8.21787e-08
-1.10717e-07
-8.05153e-08
1.11796e-07
-1.09408e-07
-1.18495e-07
-1.07888e-07
-1.50276e-07
-1.06397e-07
-1.69571e-07
-1.04845e-07
-1.80996e-07
-1.03326e-07
-1.87738e-07
-1.018e-07
-1.91764e-07
-1.00281e-07
-1.9422e-07
-9.8784e-08
-1.95781e-07
-9.72669e-08
-1.96812e-07
-9.57982e-08
-1.97527e-07
-9.42867e-08
-1.98012e-07
-9.28488e-08
-1.98306e-07
-9.1354e-08
-1.98367e-07
-8.99544e-08
-1.9811e-07
-8.84835e-08
-1.97341e-07
-8.71416e-08
-1.95752e-07
-8.5718e-08
-1.92796e-07
-8.4486e-08
-1.87553e-07
-1.81193e-07
-8.31682e-08
-1.13235e-07
-8.14955e-08
1.14382e-07
-1.11851e-07
-1.1973e-07
-1.10258e-07
-1.51658e-07
-1.08685e-07
-1.71043e-07
-1.07044e-07
-1.82521e-07
-1.05439e-07
-1.8929e-07
-1.03818e-07
-1.93329e-07
-1.02213e-07
-1.95789e-07
-1.00618e-07
-1.97349e-07
-9.90185e-08
-1.98375e-07
-9.74503e-08
-1.99081e-07
-9.58604e-08
-1.99555e-07
-9.43255e-08
-1.99835e-07
-9.27511e-08
-1.99879e-07
-9.12578e-08
-1.99601e-07
-8.97117e-08
-1.98807e-07
-8.82757e-08
-1.97185e-07
-8.67837e-08
-1.94189e-07
-8.54645e-08
-1.88888e-07
-1.82457e-07
-8.40841e-08
-1.1576e-07
-8.25564e-08
1.16965e-07
-1.14307e-07
-1.21059e-07
-1.12623e-07
-1.53133e-07
-1.10967e-07
-1.72614e-07
-1.0923e-07
-1.84145e-07
-1.07535e-07
-1.90944e-07
-1.05815e-07
-1.94995e-07
-1.04117e-07
-1.97459e-07
-1.02423e-07
-1.99016e-07
-1.0073e-07
-2.00037e-07
-9.90647e-08
-2.00734e-07
-9.73802e-08
-2.01195e-07
-9.57488e-08
-2.01461e-07
-9.40852e-08
-2.01488e-07
-9.24965e-08
-2.0119e-07
-9.08626e-08
-2.00369e-07
-8.9338e-08
-1.98715e-07
-8.77613e-08
-1.95675e-07
-8.63564e-08
-1.90316e-07
-1.8381e-07
-8.49021e-08
-1.18277e-07
-8.36699e-08
1.19543e-07
-1.16737e-07
-1.22437e-07
-1.14981e-07
-1.54672e-07
-1.13231e-07
-1.74253e-07
-1.11402e-07
-1.85846e-07
-1.09609e-07
-1.92678e-07
-1.07787e-07
-1.96746e-07
-1.05991e-07
-1.99215e-07
-1.04191e-07
-2.00772e-07
-1.02402e-07
-2.01788e-07
-1.00628e-07
-2.02475e-07
-9.88525e-08
-2.02926e-07
-9.71142e-08
-2.03175e-07
-9.53588e-08
-2.03183e-07
-9.36662e-08
-2.02861e-07
-9.19452e-08
-2.02013e-07
-9.03167e-08
-2.00322e-07
-8.86603e-08
-1.97236e-07
-8.71594e-08
-1.91811e-07
-1.85226e-07
-8.56315e-08
-1.20742e-07
-8.47515e-08
1.22043e-07
-1.19171e-07
-1.2384e-07
-1.17326e-07
-1.56262e-07
-1.15495e-07
-1.75967e-07
-1.1356e-07
-1.87633e-07
-1.11669e-07
-1.94507e-07
-1.09737e-07
-1.98596e-07
-1.07837e-07
-2.01076e-07
-1.05927e-07
-2.02634e-07
-1.0403e-07
-2.03645e-07
-1.02149e-07
-2.04324e-07
-1.00264e-07
-2.04762e-07
-9.84198e-08
-2.04997e-07
-9.65599e-08
-2.04985e-07
-9.47627e-08
-2.0464e-07
-9.29389e-08
-2.03762e-07
-9.12133e-08
-2.02035e-07
-8.94576e-08
-1.98898e-07
-8.7864e-08
-1.93407e-07
-1.86738e-07
-8.6249e-08
-1.23286e-07
-8.59119e-08
1.24661e-07
-1.21627e-07
-1.2532e-07
-1.19699e-07
-1.57942e-07
-1.17765e-07
-1.77775e-07
-1.15725e-07
-1.8952e-07
-1.1372e-07
-1.96439e-07
-1.11673e-07
-2.00552e-07
-1.09658e-07
-2.03042e-07
-1.07629e-07
-2.04602e-07
-1.0562e-07
-2.0561e-07
-1.03617e-07
-2.06279e-07
-1.01624e-07
-2.06706e-07
-9.96594e-08
-2.06922e-07
-9.76927e-08
-2.06891e-07
-9.57787e-08
-2.06519e-07
-9.38535e-08
-2.0561e-07
-9.20117e-08
-2.0384e-07
-9.01626e-08
-2.00653e-07
-8.84621e-08
-1.95086e-07
-1.88329e-07
-8.67608e-08
-1.25862e-07
-8.71561e-08
1.27309e-07
-1.24121e-07
-1.26907e-07
-1.2209e-07
-1.59732e-07
-1.20047e-07
-1.79703e-07
-1.17891e-07
-1.91531e-07
-1.15764e-07
-1.98498e-07
-1.13594e-07
-2.02636e-07
-1.11453e-07
-2.05137e-07
-1.09299e-07
-2.06698e-07
-1.07162e-07
-2.07701e-07
-1.05038e-07
-2.08361e-07
-1.02917e-07
-2.08772e-07
-1.00833e-07
-2.08972e-07
-9.87428e-08
-2.08918e-07
-9.67125e-08
-2.08519e-07
-9.4666e-08
-2.07575e-07
-9.27162e-08
-2.05765e-07
-9.07507e-08
-2.02519e-07
-8.89484e-08
-1.96877e-07
-1.90024e-07
-8.71445e-08
-1.28483e-07
-8.84916e-08
1.30008e-07
-1.26623e-07
-1.28584e-07
-1.24503e-07
-1.61627e-07
-1.22332e-07
-1.81742e-07
-1.20059e-07
-1.93661e-07
-1.17797e-07
-2.0068e-07
-1.15497e-07
-2.04844e-07
-1.13218e-07
-2.07358e-07
-1.1093e-07
-2.08921e-07
-1.0866e-07
-2.09919e-07
-1.06398e-07
-2.10569e-07