/*--------------------------------*- C++ -*----------------------------------*\
  =========                 |
  \\      /  F ield         | OpenFOAM: The Open Source CFD Toolbox
   \\    /   O peration     | Website:  https://openfoam.org
    \\  /    A nd           | Version:  6
     \\/     M anipulation  |
\*---------------------------------------------------------------------------*/
FoamFile
{
    version     2.0;
    format      ascii;
    class       volVectorField;
    location    "2";
    object      U;
}
// * * * * * * * * * * * * * * * * * * * * * * * * * * * * * * * * * * * * * //

dimensions      [0 1 -1 0 0 0 0];

internalField   nonuniform List<vector> 
10000
(
(0.040093 -6.16303 0)
(-0.116048 -5.51576 0)
(-0.118254 -5.10083 0)
(-0.112548 -4.60189 0)
(-0.0667004 -4.71261 0)
(-0.0285214 -4.91042 0)
(-0.00839901 -4.99268 0)
(-0.00173129 -4.98475 0)
(-0.00160601 -4.95345 0)
(-0.00380074 -4.93668 0)
(-0.00637493 -4.94396 0)
(-0.00832565 -4.9681 0)
(-0.00711457 -4.9867 0)
(0.00240741 -4.959 0)
(0.0268694 -4.84487 0)
(0.0703397 -4.67398 0)
(0.120817 -4.65328 0)
(0.126704 -5.15928 0)
(0.122172 -5.44177 0)
(-0.0329978 -5.9881 0)
(0.0139781 -5.87136 0)
(-0.11908 -5.25356 0)
(-0.13894 -5.06963 0)
(-0.136456 -4.90787 0)
(-0.0891924 -5.079 0)
(-0.0468544 -5.18502 0)
(-0.0217633 -5.16185 0)
(-0.0109426 -5.0886 0)
(-0.00842672 -5.02838 0)
(-0.00968306 -5.00206 0)
(-0.0124877 -5.01029 0)
(-0.0152938 -5.04737 0)
(-0.0147951 -5.10027 0)
(-0.00558578 -5.13922 0)
(0.0198253 -5.11497 0)
(0.0652248 -4.99526 0)
(0.119445 -4.86049 0)
(0.138961 -4.96579 0)
(0.136342 -4.9748 0)
(0.00454737 -5.57481 0)
(-0.0156028 -5.94653 0)
(-0.028105 -5.2352 0)
(-0.0503283 -5.01488 0)
(-0.0557703 -4.8012 0)
(-0.0476236 -4.97665 0)
(-0.0361708 -5.11614 0)
(-0.0256231 -5.12271 0)
(-0.0175794 -5.06658 0)
(-0.0121515 -5.01322 0)
(-0.0089298 -4.98793 0)
(-0.0068245 -4.99413 0)
(-0.00506129 -5.02701 0)
(-0.00284044 -5.07462 0)
(0.00058127 -5.11023 0)
(0.00522151 -5.09308 0)
(0.011111 -5.00848 0)
(0.0181096 -4.96151 0)
(0.0297537 -5.22286 0)
(0.0362483 -5.29966 0)
(0.0277799 -5.69295 0)
(-0.0218113 -5.80592 0)
(-0.0253474 -5.09922 0)
(-0.0223537 -4.92838 0)
(-0.0128407 -4.7851 0)
(-0.00535313 -4.98969 0)
(-0.00174264 -5.12801 0)
(-0.00106381 -5.12407 0)
(-0.00146575 -5.05872 0)
(-0.00173156 -4.99987 0)
(-0.00123695 -4.97221 0)
(8.06101e-05 -4.97785 0)
(0.00216942 -5.01135 0)
(0.00502216 -5.05958 0)
(0.00818393 -5.09386 0)
(0.0113492 -5.06929 0)
(0.0140155 -4.96522 0)
(0.0158056 -4.88179 0)
(0.0157045 -5.09542 0)
(0.0157132 -5.14713 0)
(0.00319173 -5.53407 0)
(-0.0209095 -5.80059 0)
(-0.0123388 -5.27335 0)
(0.00062757 -5.08081 0)
(0.00898598 -4.87754 0)
(0.00945067 -5.0361 0)
(0.007279 -5.14412 0)
(0.00436927 -5.12701 0)
(0.00194372 -5.05896 0)
(0.000940303 -5.0015 0)
(0.00129764 -4.97596 0)
(0.00291118 -4.9836 0)
(0.00540579 -5.01874 0)
(0.00823068 -5.06846 0)
(0.0109594 -5.10361 0)
(0.012412 -5.07938 0)
(0.011773 -4.97603 0)
(0.00882938 -4.89473 0)
(0.00512426 -5.10963 0)
(0.00341782 -5.15367 0)
(0.000519328 -5.54139 0)
(0.0104837 -5.79758 0)
(-0.00694011 -5.2963 0)
(-0.00936974 -5.06736 0)
(-0.0141537 -4.85914 0)
(-0.015289 -5.02539 0)
(-0.0141117 -5.13948 0)
(-0.0117253 -5.12617 0)
(-0.0087363 -5.06048 0)
(-0.00556269 -5.00457 0)
(-0.00223165 -4.98042 0)
(0.00137218 -4.98926 0)
(0.00529922 -5.02547 0)
(0.00955177 -5.07553 0)
(0.0135708 -5.10949 0)
(0.0163711 -5.08165 0)
(0.0162578 -4.9727 0)
(0.0115436 -4.88768 0)
(0.0034955 -5.10455 0)
(-0.0015914 -5.1523 0)
(-0.00386638 -5.55086 0)
(0.0180647 -5.79047 0)
(-0.00319325 -5.20532 0)
(-0.0212318 -5.03046 0)
(-0.0354333 -4.84764 0)
(-0.0369465 -5.02541 0)
(-0.0327616 -5.14673 0)
(-0.0260411 -5.13625 0)
(-0.018982 -5.07041 0)
(-0.0125191 -5.01349 0)
(-0.00708374 -4.98854 0)
(-0.00222954 -4.99722 0)
(0.00243886 -5.03368 0)
(0.00718384 -5.0841 0)
(0.0123776 -5.11715 0)
(0.0175434 -5.08513 0)
(0.0216298 -4.9676 0)
(0.0218228 -4.87277 0)
(0.0124005 -5.0886 0)
(-0.000787763 -5.14124 0)
(-0.0081404 -5.58415 0)
(0.000495287 -5.81342 0)
(0.00209724 -5.09291 0)
(-0.0168058 -4.92905 0)
(-0.0297741 -4.78864 0)
(-0.0314697 -5.00049 0)
(-0.028145 -5.14523 0)
(-0.0228418 -5.14513 0)
(-0.0172424 -5.08138 0)
(-0.0122887 -5.02327 0)
(-0.00823927 -4.99674 0)
(-0.00493449 -5.00426 0)
(-0.00226107 -5.04039 0)
(9.64732e-05 -5.09089 0)
(0.00229114 -5.12369 0)
(0.00451095 -5.08823 0)
(0.00666132 -4.95738 0)
(0.00790125 -4.82862 0)
(0.00697107 -4.97619 0)
(0.00333689 -4.98843 0)
(0.000751973 -5.5456 0)
(-0.00949044 -5.83199 0)
(-0.000569689 -5.08891 0)
(-0.0072981 -4.93384 0)
(-0.0086425 -4.79643 0)
(-0.00719709 -5.00725 0)
(-0.0060544 -5.15161 0)
(-0.00556779 -5.15102 0)
(-0.00544748 -5.08661 0)
(-0.00515094 -5.02777 0)
(-0.00479883 -5.00039 0)
(-0.0044259 -5.0072 0)
(-0.00418577 -5.04281 0)
(-0.00425566 -5.09386 0)
(-0.0042847 -5.12988 0)
(-0.00391605 -5.10363 0)
(-0.00252623 -4.99329 0)
(0.000153493 -4.90284 0)
(0.0031006 -5.11563 0)
(0.0037957 -5.15822 0)
(0.00268604 -5.60731 0)
(-0.0175008 -5.78513 0)
(0.000615367 -5.06118 0)
(0.0119916 -4.9059 0)
(0.0191745 -4.79269 0)
(0.0170459 -5.0132 0)
(0.0124429 -5.15537 0)
(0.00765158 -5.15148 0)
(0.00370337 -5.08567 0)
(0.000855834 -5.0267 0)
(-0.00107941 -4.99941 0)
(-0.00254899 -5.00587 0)
(-0.00414954 -5.04065 0)
(-0.00612587 -5.09005 0)
(-0.00857522 -5.12292 0)
(-0.011011 -5.08934 0)
(-0.0121122 -4.96069 0)
(-0.00970708 -4.82935 0)
(-0.0025752 -4.96646 0)
(0.00366446 -4.96932 0)
(0.00540254 -5.51857 0)
(0.00610205 -5.85657 0)
(0.00294124 -5.30629 0)
(0.00885917 -5.088 0)
(0.0108445 -4.87324 0)
(0.00931747 -5.03655 0)
(0.00700038 -5.15535 0)
(0.00498159 -5.14554 0)
(0.00330114 -5.08026 0)
(0.002073 -5.02297 0)
(0.0010376 -4.99673 0)
(6.7853e-05 -5.00354 0)
(-0.00103492 -5.03804 0)
(-0.00288692 -5.08754 0)
(-0.00588815 -5.12313 0)
(-0.0105391 -5.10027 0)
(-0.0164851 -4.99888 0)
(-0.0206065 -4.91841 0)
(-0.0141164 -5.12922 0)
(-0.000112525 -5.1602 0)
(0.00808598 -5.55599 0)
(0.00737784 -5.73952 0)
(0.00112777 -5.03266 0)
(0.00450373 -4.86582 0)
(0.0058521 -4.74998 0)
(0.0054195 -4.97973 0)
(0.00464226 -5.13304 0)
(0.00403238 -5.13788 0)
(0.00363966 -5.07769 0)
(0.00341002 -5.02187 0)
(0.00343116 -4.99617 0)
(0.00384751 -5.00306 0)
(0.00457015 -5.03721 0)
(0.0056415 -5.08495 0)
(0.00667512 -5.11593 0)
(0.00671676 -5.08396 0)
(0.00458426 -4.96907 0)
(-0.000403075 -4.87601 0)
(-0.00574782 -5.0847 0)
(-0.00581228 -5.12835 0)
(-0.00404577 -5.53204 0)
(0.0071765 -5.85968 0)
(-0.00350381 -5.31709 0)
(-0.000846994 -5.09781 0)
(0.00180466 -4.87541 0)
(0.00331295 -5.03517 0)
(0.00392997 -5.15352 0)
(0.00417861 -5.14398 0)
(0.00417798 -5.07908 0)
(0.00429551 -5.02234 0)
(0.00456009 -4.99691 0)
(0.00523407 -5.00466 0)
(0.00656876 -5.03989 0)
(0.00858598 -5.08874 0)
(0.0114417 -5.11991 0)
(0.0147958 -5.08567 0)
(0.0176089 -4.96541 0)
(0.0173541 -4.8671 0)
(0.00870476 -5.0787 0)
(-0.00313872 -5.12718 0)
(-0.00873262 -5.56979 0)
(0.00329796 -5.7367 0)
(-0.0111546 -5.03441 0)
(-0.00957137 -4.87416 0)
(-0.00356167 -4.74902 0)
(0.00276509 -4.97343 0)
(0.005919 -5.12658 0)
(0.00644285 -5.13312 0)
(0.00576036 -5.07489 0)
(0.0048509 -5.02083 0)
(0.00423268 -4.99682 0)
(0.0040869 -5.00557 0)
(0.00415891 -5.04192 0)
(0.00454173 -5.09185 0)
(0.00519713 -5.12347 0)
(0.00603436 -5.08642 0)
(0.00699917 -4.9539 0)
(0.00735952 -4.82344 0)
(0.00593038 -4.96889 0)
(0.00232503 -4.97843 0)
(0.000299698 -5.53416 0)
(-0.0134443 -5.79364 0)
(-0.00411839 -5.25385 0)
(0.0031657 -5.08387 0)
(0.00786745 -4.89679 0)
(0.00708883 -5.06063 0)
(0.00523736 -5.16787 0)
(0.00359115 -5.14896 0)
(0.00238565 -5.07975 0)
(0.00174233 -5.02204 0)
(0.00134655 -4.99706 0)
(0.00105741 -5.00577 0)
(0.000828357 -5.04236 0)
(0.000469576 -5.09337 0)
(0.000116146 -5.1284 0)
(7.01535e-05 -5.10043 0)
(0.000643295 -4.98832 0)
(0.00198454 -4.89683 0)
(0.00335593 -5.10887 0)
(0.00320564 -5.15022 0)
(0.00203472 -5.59839 0)
(0.00284231 -5.78466 0)
(0.00862848 -5.20254 0)
(-0.00132231 -5.01742 0)
(-0.0101864 -4.82716 0)
(-0.0117873 -5.00772 0)
(-0.0102727 -5.13836 0)
(-0.00764834 -5.13615 0)
(-0.00509656 -5.07546 0)
(-0.00329103 -5.02095 0)
(-0.00225788 -4.99683 0)
(-0.00179808 -5.00534 0)
(-0.00202596 -5.04125 0)
(-0.00273568 -5.09075 0)
(-0.00391746 -5.12244 0)
(-0.0053454 -5.08635 0)
(-0.00619746 -4.95476 0)
(-0.00511336 -4.82193 0)
(-0.0010737 -4.95985 0)
(0.00279217 -4.96423 0)
(0.00387601 -5.51477 0)
(-0.00558574 -5.74964 0)
(0.00364182 -5.05814 0)
(0.00227839 -4.89454 0)
(0.000185724 -4.775 0)
(-0.00177319 -4.99667 0)
(-0.00265514 -5.1428 0)
(-0.00292249 -5.14306 0)
(-0.00296056 -5.08055 0)
(-0.00276614 -5.02399 0)
(-0.00257952 -4.99837 0)
(-0.00248761 -5.00597 0)
(-0.0024726 -5.04127 0)
(-0.00281618 -5.09109 0)
(-0.00369563 -5.12574 0)
(-0.00539221 -5.09968 0)
(-0.00824652 -4.99276 0)
(-0.0112864 -4.90722 0)
(-0.00866864 -5.11781 0)
(-0.000617792 -5.15402 0)
(0.0048284 -5.56166 0)
(0.00882455 -5.85334 0)
(-0.00420047 -5.31229 0)
(-0.0047792 -5.09853 0)
(-0.00548513 -4.88266 0)
(-0.0053672 -5.04289 0)
(-0.00501518 -5.15898 0)
(-0.00462348 -5.1476 0)
(-0.00413731 -5.08176 0)
(-0.00368319 -5.02454 0)
(-0.00323984 -4.99885 0)
(-0.00271045 -5.00625 0)
(-0.00219305 -5.04123 0)
(-0.0012092 -5.08994 0)
(0.000571816 -5.12141 0)
(0.00344646 -5.08758 0)
(0.00744048 -4.96596 0)
(0.010668 -4.8617 0)
(0.00661514 -5.06345 0)
(-0.0019855 -5.10946 0)
(-0.0068786 -5.55681 0)
(0.00676836 -5.74096 0)
(-0.00717159 -5.03132 0)
(-0.0103032 -4.87858 0)
(-0.0104389 -4.7645 0)
(-0.00829917 -4.99079 0)
(-0.00656444 -5.14036 0)
(-0.0053704 -5.14288 0)
(-0.0045886 -5.0815 0)
(-0.00402241 -5.0252 0)
(-0.00377338 -4.99934 0)
(-0.00390422 -5.00649 0)
(-0.00437807 -5.04132 0)
(-0.00537869 -5.09042 0)
(-0.00676465 -5.12281 0)
(-0.00786089 -5.08884 0)
(-0.00762277 -4.96019 0)
(-0.00466942 -4.82878 0)
(0.000693768 -4.96396 0)
(0.0030188 -4.96362 0)
(0.00379448 -5.5112 0)
(-0.00749581 -5.81893 0)
(0.00190606 -5.23636 0)
(0.00035614 -5.06481 0)
(-0.000937209 -4.87364 0)
(-0.00204669 -5.04246 0)
(-0.00273517 -5.16089 0)
(-0.00302904 -5.14985 0)
(-0.00297507 -5.08365 0)
(-0.00284936 -5.02577 0)
(-0.00272528 -4.99927 0)
(-0.00270987 -5.00579 0)
(-0.003176 -5.04001 0)
(-0.0042123 -5.08899 0)
(-0.00627039 -5.12387 0)
(-0.00970869 -5.09998 0)
(-0.0141394 -4.99688 0)
(-0.0171829 -4.91365 0)
(-0.0115098 -5.12037 0)
(0.000383117 -5.15073 0)
(0.0076004 -5.55054 0)
(-0.00412617 -5.74397 0)
(0.00750824 -5.04668 0)
(0.00949408 -4.87978 0)
(0.00787978 -4.76226 0)
(0.00408574 -4.98808 0)
(0.00132038 -5.13885 0)
(-0.000142411 -5.14253 0)
(-0.000802072 -5.08167 0)
(-0.00092229 -5.02534 0)
(-0.00081775 -4.9991 0)
(-0.000502702 -5.00558 0)
(0.000237861 -5.03931 0)
(0.00137979 -5.08679 0)
(0.00285782 -5.11766 0)
(0.00420344 -5.08541 0)
(0.0042275 -4.96916 0)
(0.00156405 -4.87223 0)
(-0.00326786 -5.07464 0)
(-0.00497732 -5.11726 0)
(-0.00409765 -5.52722 0)
(0.0107878 -5.85034 0)
(0.00175831 -5.30578 0)
(0.00398361 -5.0898 0)
(0.00504599 -4.87253 0)
(0.00425573 -5.03468 0)
(0.00307499 -5.15479 0)
(0.00212702 -5.14633 0)
(0.00146792 -5.08164 0)
(0.000856238 -5.02441 0)
(0.000344007 -4.99829 0)
(8.33832e-05 -5.00527 0)
(8.11612e-05 -5.04002 0)
(0.000955177 -5.0889 0)
(0.00309945 -5.12106 0)
(0.00687488 -5.08854 0)
(0.0120788 -4.96879 0)
(0.0159193 -4.8665 0)
(0.0105003 -5.06889 0)
(-0.00156061 -5.11436 0)
(-0.00765473 -5.56265 0)
(0.00511372 -5.73263 0)
(-0.00407387 -5.02707 0)
(-0.000775408 -4.86678 0)
(0.0056795 -4.74151 0)
(0.00992145 -4.96667 0)
(0.0106916 -5.12273 0)
(0.0092912 -5.13157 0)
(0.00686941 -5.07402 0)
(0.00427183 -5.01948 0)
(0.00173652 -4.99435 0)
(-0.000744308 -5.00195 0)
(-0.00313424 -5.03735 0)
(-0.00551399 -5.08735 0)
(-0.00756172 -5.12111 0)
(-0.00836692 -5.08871 0)
(-0.0068053 -4.96095 0)
(-0.00213113 -4.82876 0)
(0.00368826 -4.96191 0)
(0.004637 -4.96247 0)
(0.00432222 -5.5154 0)
(-0.0148303 -5.781 0)
(0.00113646 -5.24238 0)
(0.014648 -5.06489 0)
(0.0247155 -4.8691 0)
(0.0246426 -5.03333 0)
(0.0208342 -5.14813 0)
(0.0158463 -5.13589 0)
(0.010973 -5.07021 0)
(0.00658505 -5.01346 0)
(0.00282093 -4.98808 0)
(-0.000587907 -4.99566 0)
(-0.00411661 -5.03112 0)
(-0.00781201 -5.08198 0)
(-0.0118793 -5.11986 0)
(-0.0159927 -5.09991 0)
(-0.019063 -4.99997 0)
(-0.0186814 -4.91592 0)
(-0.00955537 -5.11716 0)
(0.00278799 -5.14501 0)
(0.00943629 -5.54976 0)
(-0.00290848 -5.7374 0)
(0.00929102 -5.2022 0)
(0.0169795 -5.00459 0)
(0.0189815 -4.81231 0)
(0.0164328 -4.99161 0)
(0.0133654 -5.12093 0)
(0.0105032 -5.11868 0)
(0.00771492 -5.05872 0)
(0.00504128 -5.0049 0)
(0.00242561 -4.98083 0)
(-0.000142439 -4.98889 0)
(-0.00252186 -5.02406 0)
(-0.0047951 -5.0737 0)
(-0.00686055 -5.1088 0)
(-0.00849092 -5.08366 0)
(-0.00939433 -4.9755 0)
(-0.00888506 -4.8814 0)
(-0.00626269 -5.07608 0)
(-0.00219347 -5.10934 0)
(0.00069959 -5.51337 0)
(0.0126851 -5.77992 0)
(-0.00112802 -5.28229 0)
(0.00199 -5.0531 0)
(0.00413005 -4.83535 0)
(0.00564253 -5.001 0)
(0.00618766 -5.12293 0)
(0.00574466 -5.11673 0)
(0.00470614 -5.05489 0)
(0.00326067 -5.00036 0)
(0.00176264 -4.97622 0)
(0.000306072 -4.98439 0)
(-0.00122347 -5.01982 0)
(-0.00260405 -5.0699 0)
(-0.00397422 -5.10582 0)
(-0.00521717 -5.08235 0)
(-0.00601952 -4.97731 0)
(-0.00596858 -4.88778 0)
(-0.00451492 -5.08629 0)
(-0.00253086 -5.11807 0)
(-9.89955e-05 -5.51756 0)
(0.011546 -5.73848 0)
(-0.00806136 -5.19422 0)
(-0.00953245 -5.01198 0)
(-0.00870182 -4.8228 0)
(-0.00510681 -4.99881 0)
(-0.00221803 -5.12212 0)
(-0.000547333 -5.11523 0)
(0.000204811 -5.0528 0)
(0.000540388 -4.99809 0)
(0.000615645 -4.97391 0)
(0.000547785 -4.98217 0)
(0.000464319 -5.01763 0)
(0.000202557 -5.0676 0)
(-0.000346608 -5.10325 0)
(-0.0013316 -5.07958 0)
(-0.00274724 -4.97526 0)
(-0.00405674 -4.88826 0)
(-0.00406063 -5.09039 0)
(-0.00253759 -5.12344 0)
(-0.00034109 -5.52191 0)
(0.00133359 -5.76244 0)
(-0.00096912 -5.21823 0)
(-0.00527028 -5.03483 0)
(-0.0100567 -4.84664 0)
(-0.0116172 -5.01868 0)
(-0.0106675 -5.13543 0)
(-0.0083871 -5.12316 0)
(-0.0056139 -5.05727 0)
(-0.00307533 -5.00059 0)
(-0.000869385 -4.97546 0)
(0.0010509 -4.98324 0)
(0.00265707 -5.01842 0)
(0.00413045 -5.06791 0)
(0.00500165 -5.10242 0)
(0.00479524 -5.077 0)
(0.00299367 -4.97147 0)
(-0.000402136 -4.8861 0)
(-0.00333554 -5.09321 0)
(-0.00322792 -5.12955 0)
(-0.00148247 -5.52921 0)
(0.00934587 -5.79217 0)
(0.00326518 -5.20824 0)
(-0.00986275 -5.02273 0)
(-0.0199061 -4.82635 0)
(-0.0205592 -5.00134 0)
(-0.0173881 -5.12808 0)
(-0.0128596 -5.12312 0)
(-0.00836204 -5.06037 0)
(-0.00435247 -5.0044 0)
(-0.000991992 -4.97916 0)
(0.00202864 -4.98689 0)
(0.00505649 -5.02212 0)
(0.008143 -5.07133 0)
(0.0111296 -5.10444 0)
(0.0131917 -5.07568 0)
(0.0129277 -4.96578 0)
(0.00868204 -4.87904 0)
(0.000990044 -5.09184 0)
(-0.00398147 -5.13575 0)
(-0.00464353 -5.54547 0)
(0.000448203 -5.759 0)
(-0.0014617 -5.05463 0)
(-0.00547897 -4.89525 0)
(-0.00747515 -4.7692 0)
(-0.00760412 -4.98647 0)
(-0.00672741 -5.13086 0)
(-0.00535163 -5.13028 0)
(-0.00357147 -5.06699 0)
(-0.00164507 -5.00969 0)
(0.000469995 -4.98371 0)
(0.00281993 -4.99136 0)
(0.00545562 -5.02707 0)
(0.00884114 -5.07682 0)
(0.012932 -5.10931 0)
(0.0176568 -5.07696 0)
(0.021977 -4.9594 0)
(0.0226552 -4.86444 0)
(0.0130113 -5.07825 0)
(-0.00115544 -5.12898 0)
(-0.00847444 -5.58203 0)
(-0.000795769 -5.82055 0)
(-0.000688069 -5.23369 0)
(-0.000715716 -5.05796 0)
(-0.000497833 -4.85835 0)
(-0.000664515 -5.02487 0)
(-0.000815186 -5.14414 0)
(-0.000678364 -5.13404 0)
(-0.000322339 -5.06826 0)
(0.000287523 -5.01081 0)
(0.000958197 -4.98515 0)
(0.0016892 -4.99334 0)
(0.00252649 -5.0298 0)
(0.0035022 -5.08046 0)
(0.00487922 -5.11337 0)
(0.00683973 -5.07816 0)
(0.00930501 -4.94812 0)
(0.0110465 -4.82049 0)
(0.00936343 -4.96792 0)
(0.00401162 -4.97964 0)
(0.000533292 -5.54609 0)
(-0.00351157 -5.73961 0)
(-0.00313364 -5.03857 0)
(-0.000550063 -4.87389 0)
(0.00338133 -4.74406 0)
(0.00598135 -4.96482 0)
(0.00653035 -5.11628 0)
(0.00557269 -5.12198 0)
(0.0041767 -5.06296 0)
(0.00279578 -5.00813 0)
(0.00174819 -4.98353 0)
(0.000868796 -4.99212 0)
(-4.97132e-05 -5.02898 0)
(-0.0008027 -5.08087 0)
(-0.00134245 -5.11754 0)
(-0.000919423 -5.092 0)
(0.00104994 -4.98279 0)
(0.00424138 -4.89374 0)
(0.00629328 -5.10656 0)
(0.00500717 -5.14895 0)
(0.00256711 -5.60818 0)
(-0.00497674 -5.78168 0)
(-0.000369705 -5.23303 0)
(0.00859462 -5.06218 0)
(0.01284 -4.8756 0)
(0.0103397 -5.04169 0)
(0.00711598 -5.15157 0)
(0.00470441 -5.13423 0)
(0.00310291 -5.06524 0)
(0.00208265 -5.00697 0)
(0.00117219 -4.98115 0)
(5.76283e-05 -4.98907 0)
(-0.00143925 -5.02504 0)
(-0.00351398 -5.07544 0)
(-0.00591016 -5.10923 0)
(-0.00798256 -5.07669 0)
(-0.00836493 -4.94965 0)
(-0.00527791 -4.8205 0)
(0.000970693 -4.95889 0)
(0.00517481 -4.96217 0)
(0.00532432 -5.52102 0)
(0.0090962 -5.77787 0)
(0.00859113 -5.18918 0)
(0.00149685 -5.0004 0)
(-0.00499699 -4.80396 0)
(-0.00616998 -4.9847 0)
(-0.00489584 -5.1186 0)
(-0.00258104 -5.11876 0)
(-0.000287057 -5.05867 0)
(0.0011509 -5.00365 0)
(0.0017895 -4.97858 0)
(0.0016614 -4.9862 0)
(0.000796936 -5.02154 0)
(-0.000806488 -5.0719 0)
(-0.00369587 -5.10839 0)
(-0.0078935 -5.08663 0)
(-0.0130014 -4.98682 0)
(-0.0164257 -4.90838 0)
(-0.0106536 -5.12025 0)
(0.00149971 -5.15147 0)
(0.00804187 -5.55785 0)
(-0.00374495 -5.73672 0)
(-0.00277881 -5.04017 0)
(-0.000996372 -4.87771 0)
(0.00438601 -4.74454 0)
(0.0085069 -4.96278 0)
(0.0100897 -5.11325 0)
(0.00971441 -5.11819 0)
(0.00843661 -5.0584 0)
(0.00727705 -5.00288 0)
(0.00657684 -4.97745 0)
(0.00648043 -4.98489 0)
(0.0069895 -5.01972 0)
(0.00788661 -5.06828 0)
(0.00894358 -5.10022 0)
(0.00925671 -5.06947 0)
(0.00765158 -4.95649 0)
(0.0032216 -4.86605 0)
(-0.00271716 -5.0765 0)
(-0.00429808 -5.12037 0)
(-0.00400584 -5.53393 0)
(-0.00965247 -5.76807 0)
(-0.0062698 -5.22891 0)
(0.00520308 -5.05473 0)
(0.0141922 -4.86041 0)
(0.0159781 -5.02484 0)
(0.0147038 -5.13742 0)
(0.012138 -5.12333 0)
(0.00975116 -5.05703 0)
(0.00809654 -5.00066 0)
(0.00749415 -4.97622 0)
(0.00779329 -4.98501 0)
(0.00892462 -5.02126 0)
(0.0110721 -5.07108 0)
(0.0139832 -5.10314 0)
(0.0175739 -5.07002 0)
(0.0207202 -4.95176 0)
(0.0206333 -4.85662 0)
(0.0112805 -5.07098 0)
(-0.00186261 -5.11993 0)
(-0.00879263 -5.57118 0)
(0.00332119 -5.73808 0)
(0.00317319 -5.18895 0)
(0.00262681 -5.00687 0)
(-0.000855225 -4.82464 0)
(-0.00308881 -5.00418 0)
(-0.00324257 -5.12677 0)
(-0.00191562 -5.1184 0)
(-5.93483e-05 -5.05499 0)
(0.00180596 -5.00012 0)
(0.00337852 -4.97659 0)
(0.00477034 -4.98625 0)
(0.00608752 -5.02347 0)
(0.0073354 -5.07414 0)
(0.00869772 -5.10627 0)
(0.0100245 -5.06975 0)
(0.0110787 -4.93876 0)
(0.0110152 -4.81194 0)
(0.00819755 -4.96185 0)
(0.00324412 -4.97285 0)
(-0.000156354 -5.53617 0)
(0.00951743 -5.77402 0)
(0.00525165 -5.19051 0)
(-0.00675298 -5.00795 0)
(-0.0158187 -4.81498 0)
(-0.0162311 -4.99357 0)
(-0.0131665 -5.1228 0)
(-0.00906547 -5.1194 0)
(-0.00505935 -5.05782 0)
(-0.00192531 -5.00294 0)
(0.000441286 -4.97899 0)
(0.00212787 -4.98827 0)
(0.003362 -5.02544 0)
(0.00445402 -5.07691 0)
(0.00530559 -5.11182 0)
(0.00627514 -5.08323 0)
(0.00715658 -4.9712 0)
(0.00737456 -4.8827 0)
(0.00596798 -5.1006 0)
(0.00359094 -5.14501 0)
(0.000791273 -5.60197 0)
(0.000160986 -5.7429 0)
(-0.000914533 -5.03934 0)
(-0.00447001 -4.88212 0)
(-0.00593386 -4.75852 0)
(-0.00581517 -4.97872 0)
(-0.00487859 -5.12521 0)
(-0.00358374 -5.12595 0)
(-0.00221846 -5.06356 0)
(-0.000857524 -5.00702 0)
(0.000284889 -4.98167 0)
(0.00118887 -4.98997 0)
(0.0018434 -5.02627 0)
(0.0022235 -5.07626 0)
(0.00265668 -5.10772 0)
(0.00325941 -5.07005 0)
(0.00421231 -4.93649 0)
(0.00530738 -4.80502 0)
(0.00511426 -4.95031 0)
(0.00344464 -4.96158 0)
(0.000865666 -5.52707 0)
(-0.00150322 -5.80594 0)
(-0.00136013 -5.22139 0)
(-0.0013605 -5.04773 0)
(-0.000788296 -4.85012 0)
(-0.000571326 -5.01901 0)
(-0.00041206 -5.13986 0)
(-0.000186987 -5.13061 0)
(0.000259201 -5.06533 0)
(0.000643275 -5.00815 0)
(0.00103071 -4.9826 0)
(0.00119312 -4.99065 0)
(0.00110479 -5.0268 0)
(0.000856627 -5.07759 0)
(0.000332659 -5.11243 0)
(0.000169937 -5.0844 0)
(0.00072621 -4.9728 0)
(0.00225733 -4.88277 0)
(0.00369801 -5.09668 0)
(0.00336768 -5.13771 0)
(0.00139067 -5.59084 0)
(-0.00484996 -5.72475 0)
(-0.00526198 -5.02706 0)
(-0.00315216 -4.8651 0)
(0.00103502 -4.73794 0)
(0.00437491 -4.96123 0)
(0.00561745 -5.114 0)
(0.00521998 -5.1203 0)
(0.00417401 -5.06161 0)
(0.00328432 -5.00701 0)
(0.00272404 -4.98234 0)
(0.00240709 -4.99046 0)
(0.00208344 -5.02605 0)
(0.00133823 -5.07516 0)
(0.000123593 -5.10623 0)
(-0.00167937 -5.0696 0)
(-0.00345171 -4.93853 0)
(-0.00351024 -4.80852 0)
(-0.00066772 -4.9507 0)
(0.00274327 -4.95561 0)
(0.00293986 -5.5087 0)
(-0.00651472 -5.76638 0)
(-0.00373991 -5.22311 0)
(0.00397175 -5.05598 0)
(0.00796132 -4.87335 0)
(0.0064001 -5.04198 0)
(0.00421775 -5.15255 0)
(0.00257438 -5.13541 0)
(0.00186349 -5.06683 0)
(0.0017825 -5.0091 0)
(0.00226176 -4.9838 0)
(0.00297025 -4.99192 0)
(0.00381778 -5.02751 0)
(0.0046039 -5.07704 0)
(0.00454306 -5.11034 0)
(0.00300689 -5.08212 0)
(-0.00115076 -4.97418 0)
(-0.00723224 -4.89195 0)
(-0.00815104 -5.11015 0)
(-0.00146978 -5.14948 0)
(0.00294629 -5.55893 0)
(0.00838019 -5.76371 0)
(0.00583583 -5.17905 0)
(-0.00403017 -4.99545 0)
(-0.0128034 -4.80663 0)
(-0.0140909 -4.99087 0)
(-0.0120201 -5.12469 0)
(-0.00860524 -5.12439 0)
(-0.00514194 -5.06454 0)
(-0.00218319 -5.01039 0)
(0.000182436 -4.9864 0)
(0.00238371 -4.99513 0)
(0.00486916 -5.03111 0)
(0.00804849 -5.07991 0)
(0.0124562 -5.10948 0)
(0.0176517 -5.07115 0)
(0.0220811 -4.94463 0)
(0.0220204 -4.84137 0)
(0.0105338 -5.0539 0)
(-0.00386358 -5.10942 0)
(-0.0114629 -5.56327 0)
(-0.000161456 -5.73769 0)
(0.000904359 -5.03701 0)
(-0.00240172 -4.88146 0)
(-0.00390406 -4.76146 0)
(-0.00430293 -4.98449 0)
(-0.00389804 -5.13273 0)
(-0.00311773 -5.13442 0)
(-0.00207144 -5.07247 0)
(-0.00117799 -5.01605 0)
(-0.000408622 -4.99073 0)
(7.18592e-05 -4.99906 0)
(0.000466322 -5.0355 0)
(0.00121892 -5.08583 0)
(0.00287291 -5.11713 0)
(0.00680557 -5.07759 0)
(0.0134642 -4.93979 0)
(0.0207986 -4.80499 0)
(0.018527 -4.95773 0)
(0.00471752 -4.9767 0)
(-0.00524049 -5.56008 0)
(-0.00195116 -5.80702 0)
(0.00196296 -5.22467 0)
(0.00262829 -5.05072 0)
(0.0032669 -4.8542 0)
(0.00248913 -5.02485 0)
(0.00166051 -5.14756 0)
(0.00123796 -5.13959 0)
(0.00101715 -5.07483 0)
(0.000756396 -5.01766 0)
(0.000137335 -4.99178 0)
(-0.00106165 -4.99942 0)
(-0.00312152 -5.03537 0)
(-0.0063892 -5.08619 0)
(-0.0105414 -5.12107 0)
(-0.0148511 -5.09039 0)
(-0.0172633 -4.9654 0)
(-0.014183 -4.83688 0)
(-0.00222887 -4.97059 0)
(0.00867439 -4.96257 0)
(0.0115302 -5.53346 0)
(-0.00638635 -5.73158 0)
(-0.00103894 -5.0371 0)
(0.00317251 -4.87294 0)
(0.00904051 -4.74281 0)
(0.011788 -4.96609 0)
(0.0118346 -5.12114 0)
(0.0102205 -5.12925 0)
(0.00810673 -5.07124 0)
(0.00592704 -5.01639 0)
(0.00407184 -4.99101 0)
(0.00223247 -4.99815 0)
(0.00023305 -5.03273 0)
(-0.00236878 -5.08195 0)
(-0.00631683 -5.11669 0)
(-0.0116334 -5.09223 0)
(-0.0180251 -4.98848 0)
(-0.0220743 -4.90519 0)
(-0.0148727 -5.11347 0)
(0.00061978 -5.1446 0)
(0.00831872 -5.54435 0)
(-0.0127551 -5.76959 0)
(-0.00364632 -5.23672 0)
(0.0087279 -5.06265 0)
(0.019029 -4.86852 0)
(0.0207065 -5.03487 0)
(0.0186704 -5.15011 0)
(0.0151509 -5.13779 0)
(0.011545 -5.0722 0)
(0.00871475 -5.01582 0)
(0.00684324 -4.99074 0)
(0.00592233 -4.99835 0)
(0.00581588 -5.03292 0)
(0.00621793 -5.0806 0)
(0.00694099 -5.11097 0)
(0.00692246 -5.0777 0)
(0.00485767 -4.9609 0)
(0.000175558 -4.86554 0)
(-0.0056882 -5.0721 0)
(-0.00683395 -5.11568 0)
(-0.00600631 -5.51963 0)
(-0.00325276 -5.73955 0)
(0.00382814 -5.20229 0)
(0.00582843 -5.01591 0)
(0.00662879 -4.82773 0)
(0.00682879 -5.0068 0)
(0.00666516 -5.13326 0)
(0.00610898 -5.12889 0)
(0.00552488 -5.06834 0)
(0.00492153 -5.01497 0)
(0.00468688 -4.99197 0)
(0.00486645 -5.00129 0)
(0.00581473 -5.03745 0)
(0.00775306 -5.0867 0)
(0.0106056 -5.11769 0)
(0.014417 -5.08269 0)
(0.0177474 -4.96115 0)
(0.0179328 -4.86128 0)
(0.00863103 -5.07149 0)
(-0.00468738 -5.1207 0)
(-0.0110902 -5.5623 0)
(0.000855824 -5.75991 0)
(0.0102585 -5.21791 0)
(0.00747072 -5.03583 0)
(0.0025289 -4.85325 0)
(-0.00143729 -5.02968 0)
(-0.00292133 -5.14953 0)
(-0.00264497 -5.13937 0)
(-0.00168872 -5.07502 0)
(-0.000746473 -5.01979 0)
(-0.000100583 -4.99613 0)
(0.000368136 -5.00563 0)
(0.000798507 -5.04264 0)
(0.00129647 -5.09308 0)
(0.00232664 -5.12496 0)
(0.00388472 -5.0878 0)
(0.00573989 -4.95457 0)
(0.00710902 -4.82273 0)
(0.00540564 -4.96685 0)
(0.000436902 -4.97792 0)
(-0.00219079 -5.53224 0)
(0.00638061 -5.80028 0)
(0.0131342 -5.22554 0)
(0.00523732 -5.02844 0)
(-0.00366095 -4.83024 0)
(-0.00757713 -5.00831 0)
(-0.00793004 -5.13959 0)
(-0.00660838 -5.1382 0)
(-0.00494098 -5.07786 0)
(-0.00393217 -5.02359 0)
(-0.00357418 -4.99984 0)
(-0.00390591 -5.00907 0)
(-0.00456294 -5.04614 0)
(-0.00529752 -5.09787 0)
(-0.00584516 -5.13388 0)
(-0.00527467 -5.10699 0)
(-0.00337085 -4.99526 0)
(-9.83822e-05 -4.90248 0)
(0.00220305 -5.11223 0)
(0.00123423 -5.15497 0)
(-0.000248191 -5.60174 0)
(0.00873714 -5.80491 0)
(-0.00664396 -5.15161 0)
(-0.00485873 -4.94026 0)
(-0.000446743 -4.78137 0)
(0.00286958 -4.98918 0)
(0.00378128 -5.13605 0)
(0.00267179 -5.1402 0)
(0.000604851 -5.08084 0)
(-0.00161898 -5.02626 0)
(-0.00372425 -5.00186 0)
(-0.00579051 -5.01038 0)
(-0.00802591 -5.0466 0)
(-0.0106709 -5.09708 0)
(-0.0132834 -5.1308 0)
(-0.0152732 -5.09785 0)
(-0.0153007 -4.96914 0)
(-0.0112107 -4.83614 0)
(-0.0037377 -4.97016 0)
(0.00115248 -4.97393 0)
(0.00264977 -5.52057 0)
(0.00115651 -5.80285 0)
(-0.0143385 -5.25971 0)
(-0.00524618 -5.08377 0)
(0.00355864 -4.8887 0)
(0.0064722 -5.05249 0)
(0.00577796 -5.16423 0)
(0.00313558 -5.14965 0)
(0.000158843 -5.08331 0)
(-0.00257511 -5.02703 0)
(-0.00478938 -5.00247 0)
(-0.00690237 -5.01081 0)
(-0.00908899 -5.04666 0)
(-0.0117989 -5.09754 0)
(-0.0154888 -5.13495 0)
(-0.0198899 -5.11452 0)
(-0.0244637 -5.01508 0)
(-0.0257922 -4.93373 0)
(-0.0167785 -5.13978 0)
(-0.0025906 -5.17057 0)
(0.00605884 -5.56306 0)
(-8.67551e-05 -5.79479 0)
(-0.000584569 -5.2512 0)
(-0.00219302 -5.0598 0)
(-0.00628453 -4.86816 0)
(-0.00929246 -5.04119 0)
(-0.0102224 -5.16 0)
(-0.00975267 -5.14965 0)
(-0.00880502 -5.08523 0)
(-0.00800467 -5.02967 0)
(-0.00754986 -5.00517 0)
(-0.00729684 -5.01327 0)
(-0.00708867 -5.0484 0)
(-0.00704474 -5.09742 0)
(-0.00716016 -5.13094 0)
(-0.00811133 -5.1035 0)
(-0.0104576 -4.99418 0)
(-0.0131229 -4.90318 0)
(-0.0133395 -5.10616 0)
(-0.00891333 -5.14625 0)
(-0.00413551 -5.53855 0)
(0.00726432 -5.8321 0)
(0.001019 -5.25668 0)
(-0.0113928 -5.06526 0)
(-0.0198813 -4.86147 0)
(-0.0200346 -5.03302 0)
(-0.0174206 -5.15858 0)
(-0.0143887 -5.15335 0)
(-0.0117734 -5.09088 0)
(-0.0100127 -5.03543 0)
(-0.00875924 -5.01079 0)
(-0.00775911 -5.01893 0)
(-0.00646369 -5.05449 0)
(-0.00472058 -5.10414 0)
(-0.00264376 -5.13792 0)
(-0.00061812 -5.10991 0)
(-0.00027653 -4.99969 0)
(-0.00272949 -4.91027 0)
(-0.00748306 -5.11963 0)
(-0.0099896 -5.16548 0)
(-0.00784101 -5.56372 0)
(-0.00563029 -5.7924 0)
(-0.0106942 -5.10518 0)
(-0.0134092 -4.93851 0)
(-0.0111277 -4.80205 0)
(-0.00729702 -5.01393 0)
(-0.00533887 -5.15708 0)
(-0.0056024 -5.15736 0)
(-0.00685496 -5.09588 0)
(-0.00806805 -5.0405 0)
(-0.00879414 -5.01597 0)
(-0.00890194 -5.02463 0)
(-0.00831736 -5.0611 0)
(-0.00697682 -5.112 0)
(-0.00432964 -5.1468 0)
(-0.000261586 -5.11794 0)
(0.00468271 -5.00332 0)
(0.00857903 -4.90726 0)
(0.00411478 -5.11601 0)
(-0.00630456 -5.16705 0)
(-0.0105035 -5.60647 0)
(-0.00746303 -5.83701 0)
(-0.00902434 -5.30177 0)
(-0.00390123 -5.12827 0)
(-0.00226336 -4.93802 0)
(-0.00483892 -5.09639 0)
(-0.0076271 -5.1976 0)
(-0.00988415 -5.17479 0)
(-0.0112578 -5.10382 0)
(-0.0120341 -5.04547 0)
(-0.0124492 -5.0203 0)
(-0.0129527 -5.02886 0)
(-0.0136409 -5.06556 0)
(-0.0147325 -5.11719 0)
(-0.0160184 -5.15321 0)
(-0.0166816 -5.12444 0)
(-0.0158074 -5.00216 0)
(-0.0115198 -4.87703 0)
(-0.00439346 -5.01704 0)
(-0.000794962 -5.02318 0)
(0.00157688 -5.56629 0)
(0.0109423 -5.84089 0)
(0.004672 -5.26193 0)
(-0.00888654 -5.07487 0)
(-0.0233529 -4.8837 0)
(-0.0290411 -5.05862 0)
(-0.0288647 -5.181 0)
(-0.025554 -5.17237 0)
(-0.0214369 -5.10769 0)
(-0.0180122 -5.05097 0)
(-0.0158139 -5.02538 0)
(-0.0147949 -5.03292 0)
(-0.0148261 -5.06847 0)
(-0.0161612 -5.11975 0)
(-0.0187743 -5.15872 0)
(-0.0227004 -5.14133 0)
(-0.0271797 -5.04674 0)
(-0.0284622 -4.97122 0)
(-0.0188108 -5.18208 0)
(-0.00341003 -5.21705 0)
(0.0063812 -5.60944 0)
(0.00658084 -5.85085 0)
(-0.0010671 -5.13636 0)
(-0.0166828 -4.96608 0)
(-0.0257198 -4.81794 0)
(-0.0249497 -5.02773 0)
(-0.021652 -5.17481 0)
(-0.0183663 -5.17773 0)
(-0.0156469 -5.11616 0)
(-0.0136512 -5.0589 0)
(-0.0121416 -5.03198 0)
(-0.0110121 -5.03803 0)
(-0.0100271 -5.07196 0)
(-0.00938339 -5.12069 0)
(-0.00926851 -5.15511 0)
(-0.0101939 -5.13021 0)
(-0.0128628 -5.0252 0)
(-0.0158186 -4.93962 0)
(-0.0152812 -5.14709 0)
(-0.00930488 -5.19087 0)
(-0.00351566 -5.58353 0)
(-0.008839 -5.8433 0)
(-0.00865043 -5.12869 0)
(-0.00397994 -4.97727 0)
(0.00133725 -4.85411 0)
(0.00138987 -5.06463 0)
(-0.000587581 -5.20005 0)
(-0.00312668 -5.19249 0)
(-0.00521234 -5.12498 0)
(-0.00639217 -5.0653 0)
(-0.00668536 -5.03756 0)
(-0.00623068 -5.04358 0)
(-0.00503829 -5.07769 0)
(-0.00342434 -5.12667 0)
(-0.00155167 -5.16086 0)
(-0.000246005 -5.13471 0)
(-0.00103975 -5.02849 0)
(-0.00455708 -4.9446 0)
(-0.00906423 -5.15895 0)
(-0.00998878 -5.2082 0)
(-0.00700856 -5.6065 0)
(-0.0029923 -5.88217 0)
(-0.00217555 -5.30479 0)
(0.00116273 -5.12366 0)
(0.00295146 -4.92082 0)
(0.00200875 -5.08431 0)
(0.000230418 -5.20111 0)
(-0.00148102 -5.18979 0)
(-0.00278972 -5.12381 0)
(-0.00367515 -5.06623 0)
(-0.00406604 -5.04021 0)
(-0.00393198 -5.04746 0)
(-0.00312316 -5.08287 0)
(-0.0016747 -5.13293 0)
(0.000738001 -5.16744 0)
(0.00394939 -5.13945 0)
(0.00710424 -5.02776 0)
(0.00870509 -4.93729 0)
(0.00323239 -5.15226 0)
(-0.00601784 -5.20708 0)
(-0.00971083 -5.64659 0)
(-0.0038394 -5.80174 0)
(-0.00365981 -5.11458 0)
(-0.000837658 -4.94539 0)
(0.00326038 -4.81254 0)
(0.00555836 -5.02919 0)
(0.0054931 -5.17695 0)
(0.00374715 -5.18053 0)
(0.0014365 -5.12081 0)
(-0.000673821 -5.06591 0)
(-0.00228101 -5.04115 0)
(-0.00345299 -5.04935 0)
(-0.00422509 -5.08546 0)
(-0.00506096 -5.13638 0)
(-0.00600901 -5.17149 0)