# vtk DataFile Version 2.0
track0
ASCII
DATASET POLYDATA
POINTS 12145 float
-0.0205 0.001 1e-05
-0.0204874 0.0011 1e-05
-0.0204747 0.00119999 1e-05
-0.0204619 0.00129996 1e-05
-0.0204489 0.00139991 1e-05
-0.0204359 0.0015 1e-05
-0.0204227 0.0016 1e-05
-0.0204093 0.00169998 1e-05
-0.0203958 0.00179994 1e-05
-0.0203822 0.00189988 1e-05
-0.0203684 0.002 1e-05
-0.0203544 0.0021 1e-05
-0.0203403 0.00219997 1e-05
-0.0203259 0.00229992 1e-05
-0.0203114 0.00239984 1e-05
-0.0202966 0.0025 1e-05
-0.0202944 0.00251508 1e-05
-0.0202921 0.00253016 1e-05
-0.0202899 0.00254524 1e-05
-0.0202876 0.00256032 1e-05
-0.0202854 0.00257509 1e-05
-0.0202726 0.00266007 1e-05
-0.0202596 0.00274503 1e-05
-0.0202465 0.00282996 1e-05
-0.0202332 0.00291488 1e-05
-0.0202198 0.003 1e-05
-0.0202038 0.0031 1e-05
-0.0201875 0.00319996 1e-05
-0.020171 0.00329989 1e-05
-0.0201543 0.00339977 1e-05
-0.0201373 0.0035 1e-05
-0.0201201 0.0036 1e-05
-0.0201027 0.00369996 1e-05
-0.0200849 0.00379987 1e-05
-0.020067 0.00389973 1e-05
-0.0200487 0.004 1e-05
-0.0200434 0.00402846 1e-05
-0.0200381 0.00405691 1e-05
-0.0200328 0.00408536 1e-05
-0.0200275 0.0041138 1e-05
-0.0200223 0.00414109 1e-05
-0.0200087 0.00421288 1e-05
-0.019995 0.00428463 1e-05
-0.0199812 0.00435636 1e-05
-0.0199672 0.00442806 1e-05
-0.019953 0.0045 1e-05
-0.0199331 0.0046 1e-05
-0.0199129 0.00469994 1e-05
-0.0198924 0.00479983 1e-05
-0.0198717 0.00489966 1e-05
-0.0198505 0.005 1e-05
-0.0198327 0.00508342 1e-05
-0.0198147 0.00516679 1e-05
-0.0197964 0.00525012 1e-05
-0.019778 0.0053334 1e-05
-0.0197614 0.00540758 1e-05
-0.0197572 0.00542606 1e-05
-0.019753 0.00544454 1e-05
-0.0197488 0.00546302 1e-05
-0.0197446 0.0054815 1e-05
-0.0197403 0.0055 1e-05
-0.0197174 0.0056 1e-05
-0.0196942 0.00569993 1e-05
-0.0196707 0.00579979 1e-05
-0.0196469 0.00589958 1e-05
-0.0196226 0.006 1e-05
-0.0195986 0.00609802 1e-05
-0.0195743 0.00619596 1e-05
-0.0195497 0.00629383 1e-05
-0.0195247 0.00639162 1e-05
-0.0195025 0.00647784 1e-05
-0.0195014 0.00648227 1e-05
-0.0195002 0.0064867 1e-05
-0.019499 0.00649113 1e-05
-0.0194979 0.00649557 1e-05
-0.0194967 0.0065 1e-05
-0.0194706 0.0066 1e-05
-0.0194441 0.00669992 1e-05
-0.0194173 0.00679975 1e-05
-0.0193902 0.0068995 1e-05
-0.0193626 0.007 1e-05
-0.0193392 0.00708389 1e-05
-0.0193156 0.00716771 1e-05
-0.0192918 0.00725148 1e-05
-0.0192677 0.00733517 1e-05
-0.0192457 0.00741098 1e-05
-0.0192405 0.00742879 1e-05
-0.0192353 0.00744659 1e-05
-0.0192301 0.00746438 1e-05
-0.0192248 0.00748218 1e-05
-0.0192196 0.0075 1e-05
-0.01919 0.0076 1e-05
-0.01916 0.0076999 1e-05
-0.0191298 0.0077997 1e-05
-0.0190992 0.00789941 1e-05
-0.0190679 0.008 1e-05
-0.0190526 0.00804897 1e-05
-0.0190371 0.00809791 1e-05
-0.0190216 0.00814683 1e-05
-0.0190059 0.00819572 1e-05
-0.018991 0.00824209 1e-05
-0.0189744 0.00829367 1e-05
-0.0189576 0.00834523 1e-05
-0.0189408 0.00839675 1e-05
-0.0189239 0.00844824 1e-05
-0.0189067 0.0085 1e-05
-0.0188735 0.0086 1e-05
-0.0188399 0.00869989 1e-05
-0.0188059 0.00879966 1e-05
-0.0187716 0.00889931 1e-05
-0.0187384 0.00899491 1e-05
-0.018738 0.00899593 1e-05
-0.0187377 0.00899695 1e-05
-0.0187373 0.00899797 1e-05
-0.018737 0.00899898 1e-05
-0.0187366 0.009 1e-05
-0.0187014 0.0091 1e-05
-0.0186659 0.00919988 1e-05
-0.01863 0.00929963 1e-05
-0.0185938 0.00939926 1e-05
-0.0185568 0.0095 1e-05
-0.018543 0.00953718 1e-05
-0.0185292 0.00957434 1e-05
-0.0185152 0.00961149 1e-05
-0.0185013 0.00964862 1e-05
-0.0184878 0.00968443 1e-05
-0.0184639 0.00974755 1e-05
-0.0184398 0.00981061 1e-05
-0.0184156 0.00987361 1e-05
-0.0183913 0.00993656 1e-05
-0.0183666 0.01 1e-05
-0.0183411 0.0100651 1e-05
-0.0183155 0.0101301 1e-05
-0.0182897 0.010195 1e-05
-0.0182638 0.0102599 1e-05
-0.0182392 0.010321 1e-05
-0.0182247 0.0103568 1e-05
-0.0182101 0.0103926 1e-05
-0.0181955 0.0104283 1e-05
-0.0181809 0.0104641 1e-05
-0.0181661 0.0105 1e-05
-0.0181314 0.0105841 1e-05
-0.0180965 0.0106682 1e-05
-0.0180612 0.0107521 1e-05
-0.0180258 0.0108359 1e-05
-0.0179926 0.0109136 1e-05
-0.0179852 0.0109309 1e-05
-0.0179777 0.0109481 1e-05
-0.0179702 0.0109654 1e-05
-0.0179628 0.0109827 1e-05
-0.0179553 0.011 1e-05
-0.0179138 0.0110955 1e-05
-0.017872 0.0111908 1e-05
-0.0178299 0.011286 1e-05
-0.0177874 0.0113811 1e-05
-0.017748 0.0114685 1e-05
-0.0177451 0.0114748 1e-05
-0.0177422 0.0114811 1e-05
-0.0177394 0.0114874 1e-05
-0.0177365 0.0114937 1e-05
-0.0177336 0.0115 1e-05
-0.017688 0.0116 1e-05
-0.017642 0.0116998 1e-05
-0.0175956 0.0117995 1e-05
-0.0175488 0.011899 1e-05
-0.0175053 0.0119905 1e-05
-0.0175044 0.0119924 1e-05
-0.0175035 0.0119943 1e-05
-0.0175026 0.0119962 1e-05
-0.0175017 0.0119981 1e-05
-0.0175008 0.012 1e-05
-0.0174536 0.0120985 1e-05
-0.017406 0.0121968 1e-05
-0.017358 0.0122949 1e-05
-0.0173097 0.0123929 1e-05
-0.0172647 0.0124832 1e-05
-0.017263 0.0124866 1e-05
-0.0172613 0.0124899 1e-05
-0.0172596 0.0124933 1e-05
-0.0172579 0.0124966 1e-05
-0.0172562 0.0125 1e-05
-0.0172102 0.0125915 1e-05
-0.0171638 0.0126829 1e-05
-0.0171171 0.012774 1e-05
-0.01707 0.0128651 1e-05
-0.0170259 0.0129497 1e-05
-0.0170206 0.0129597 1e-05
-0.0170153 0.0129698 1e-05
-0.01701 0.0129799 1e-05
-0.0170047 0.0129899 1e-05
-0.0169994 0.013 1e-05
-0.0169574 0.0130797 1e-05
-0.016915 0.0131592 1e-05
-0.0168725 0.0132386 1e-05
-0.0168297 0.0133179 1e-05
-0.0167891 0.0133924 1e-05
-0.0167773 0.0134139 1e-05
-0.0167655 0.0134354 1e-05
-0.0167537 0.0134569 1e-05
-0.0167418 0.0134784 1e-05
-0.0167299 0.0135 1e-05
-0.0166948 0.0135635 1e-05
-0.0166594 0.0136269 1e-05
-0.016624 0.0136901 1e-05
-0.0165884 0.0137533 1e-05
-0.0165542 0.0138136 1e-05
-0.0165329 0.0138509 1e-05
-0.0165116 0.0138881 1e-05
-0.0164903 0.0139253 1e-05
-0.0164688 0.0139625 1e-05
-0.0164472 0.014 1e-05
-0.016422 0.0140434 1e-05
-0.0163967 0.0140868 1e-05
-0.0163713 0.0141302 1e-05
-0.0163459 0.0141735 1e-05
-0.0163212 0.0142154 1e-05
-0.0162875 0.0142723 1e-05
-0.0162536 0.0143292 1e-05
-0.0162197 0.0143859 1e-05
-0.0161856 0.0144426 1e-05
-0.0161509 0.0145 1e-05
-0.0161387 0.01452 1e-05
-0.0161265 0.01454 1e-05
-0.0161143 0.0145601 1e-05
-0.0161021 0.0145801 1e-05
-0.01609 0.0145998 1e-05
-0.0160442 0.0146745 1e-05
-0.0159981 0.0147491 1e-05
-0.0159518 0.0148236 1e-05
-0.0159052 0.0148979 1e-05
-0.0158607 0.0149684 1e-05
-0.0158567 0.0149748 1e-05
-0.0158527 0.0149811 1e-05
-0.0158487 0.0149874 1e-05
-0.0158447 0.0149937 1e-05
-0.0158407 0.015 1e-05
-0.0157992 0.0150652 1e-05
-0.0157576 0.0151302 1e-05
-0.0157157 0.0151952 1e-05
-0.0156737 0.01526 1e-05
-0.0156333 0.015322 1e-05
-0.01561 0.0153576 1e-05
-0.0155866 0.0153931 1e-05
-0.0155631 0.0154287 1e-05
-0.0155396 0.0154642 1e-05
-0.0155158 0.0155 1e-05
-0.0154942 0.0155325 1e-05
-0.0154725 0.0155649 1e-05
-0.0154508 0.0155973 1e-05
-0.0154291 0.0156296 1e-05
-0.0154077 0.0156613 1e-05
-0.015363 0.0157275 1e-05
-0.015318 0.0157936 1e-05
-0.0152729 0.0158595 1e-05
-0.0152276 0.0159253 1e-05
-0.0151839 0.0159883 1e-05
-0.0151823 0.0159907 1e-05
-0.0151807 0.015993 1e-05
-0.015179 0.0159953 1e-05
-0.0151774 0.0159977 1e-05
-0.0151758 0.016 1e-05
-0.015133 0.0160613 1e-05
-0.0150901 0.0161225 1e-05
-0.015047 0.0161836 1e-05
-0.0150037 0.0162446 1e-05
-0.0149619 0.0163033 1e-05
-0.0149337 0.0163426 1e-05
-0.0149055 0.0163819 1e-05
-0.0148771 0.0164212 1e-05
-0.0148487 0.0164604 1e-05
-0.0148199 0.0165 1e-05
-0.0148043 0.0165214 1e-05
-0.0147886 0.0165428 1e-05
-0.014773 0.0165642 1e-05
-0.0147573 0.0165856 1e-05
-0.0147417 0.0166067 1e-05
-0.0146981 0.016666 1e-05
-0.0146542 0.0167252 1e-05
-0.0146102 0.0167842 1e-05
-0.0145661 0.0168432 1e-05
-0.0145233 0.0169 1e-05
-0.0145082 0.01692 1e-05
-0.0144931 0.01694 1e-05
-0.0144779 0.01696 1e-05
-0.0144627 0.0169799 1e-05
-0.0144474 0.017 1e-05
-0.0144193 0.0170369 1e-05
-0.0143911 0.0170737 1e-05
-0.0143628 0.0171105 1e-05
-0.0143345 0.0171472 1e-05
-0.0143067 0.0171832 1e-05
-0.0142637 0.0172385 1e-05
-0.0142206 0.0172938 1e-05
-0.0141773 0.017349 1e-05
-0.0141339 0.0174041 1e-05
-0.0140917 0.0174574 1e-05
-0.014085 0.0174659 1e-05
-0.0140782 0.0174744 1e-05
-0.0140714 0.0174829 1e-05
-0.0140646 0.0174915 1e-05
-0.0140578 0.0175 1e-05
-0.0140219 0.0175449 1e-05
-0.013986 0.0175897 1e-05
-0.01395 0.0176345 1e-05
-0.0139139 0.0176791 1e-05
-0.0138786 0.0177227 1e-05
-0.0138363 0.0177746 1e-05
-0.0137939 0.0178264 1e-05
-0.0137513 0.0178781 1e-05
-0.0137087 0.0179298 1e-05
-0.0136671 0.0179799 1e-05
-0.0136637 0.0179839 1e-05
-0.0136604 0.0179879 1e-05
-0.013657 0.017992 1e-05
-0.0136537 0.017996 1e-05
-0.0136503 0.018 1e-05
-0.0136117 0.0180462 1e-05
-0.013573 0.0180924 1e-05
-0.0135342 0.0181384 1e-05
-0.0134954 0.0181844 1e-05
-0.0134573 0.0182292 1e-05
-0.0134157 0.018278 1e-05
-0.013374 0.0183268 1e-05
-0.0133322 0.0183754 1e-05
-0.0132902 0.018424 1e-05
-0.0132493 0.0184712 1e-05
-0.0132442 0.018477 1e-05
-0.0132392 0.0184827 1e-05
-0.0132342 0.0184885 1e-05
-0.0132292 0.0184942 1e-05
-0.0132242 0.0185 1e-05
-0.0131879 0.0185415 1e-05
-0.0131516 0.018583 1e-05
-0.0131152 0.0186244 1e-05
-0.0130787 0.0186657 1e-05
-0.0130429 0.0187061 1e-05
-0.0130019 0.0187522 1e-05
-0.0129609 0.0187981 1e-05
-0.0129197 0.018844 1e-05
-0.0128785 0.0188898 1e-05
-0.0128381 0.0189345 1e-05
-0.0128262 0.0189476 1e-05
-0.0128143 0.0189607 1e-05
-0.0128024 0.0189738 1e-05
-0.0127905 0.0189869 1e-05
-0.0127785 0.019 1e-05
-0.0127498 0.0190314 1e-05
-0.0127211 0.0190628 1e-05
-0.0126923 0.0190942 1e-05
-0.0126635 0.0191255 1e-05
-0.012635 0.0191563 1e-05
-0.0125947 0.0191998 1e-05
-0.0125544 0.0192433 1e-05
-0.0125139 0.0192866 1e-05
-0.0124734 0.0193299 1e-05
-0.0124336 0.0193722 1e-05
-0.0124095 0.0193978 1e-05
-0.0123853 0.0194233 1e-05
-0.0123612 0.0194488 1e-05
-0.012337 0.0194743 1e-05
-0.0123125 0.0195 1e-05
-0.0122967 0.0195165 1e-05
-0.012281 0.019533 1e-05
-0.0122652 0.0195495 1e-05
-0.0122494 0.0195659 1e-05
-0.0122338 0.0195823 1e-05
-0.0121941 0.0196235 1e-05
-0.0121544 0.0196647 1e-05
-0.0121146 0.0197058 1e-05
-0.0120747 0.0197468 1e-05
-0.0120355 0.019787 1e-05
-0.0119962 0.0198271 1e-05
-0.0119568 0.0198672 1e-05
[...]
POINT_DATA 12145
 FIELD attributes 1
U 3 12145 float
-0.0338085 	-0.268468 	0 -0.0341208 	-0.268439 	0 -0.034434 	-0.268409 	0 -0.0347465 	-0.268378 	0 -0.0350589 	-0.268346 	0 -0.0353744 	-0.268314 	0 -0.0357885 	-0.26828 	0 -0.0362048 	-0.268245 	0 -0.0366206 	-0.268208 	0 -0.0370336 	-0.26817 	0 -0.0374497 	-0.26813 	0 -0.0379492 	-0.268084 	0 -0.0384506 	-0.268037 	0 -0.0389517 	-0.267988 	0 -0.0394527 	-0.267939 	0 -0.0399558 	-0.267888 	0 -0.0400404 	-0.267879 	0 -0.0401266 	-0.26787 	0 -0.0402129 	-0.267861 	0 -0.0402994 	-0.267852 	0 -0.0403853 	-0.267843 	0 -0.0408707 	-0.267791 	0 -0.0413576 	-0.267739 	0 -0.0418444 	-0.267686 	0 -0.0423311 	-0.267632 	0 -0.0428206 	-0.267578 	0 -0.0434543 	-0.267505 	0 -0.0440884 	-0.26743 	0 -0.0447191 	-0.267353 	0 -0.0453496 	-0.267275 	0 -0.0459836 	-0.267195 	0 -0.0466648 	-0.267106 	0 -0.0473468 	-0.267016 	0 -0.0480285 	-0.266924 	0 -0.0487099 	-0.266831 	0 -0.0493923 	-0.266736 	0 -0.0495964 	-0.266706 	0 -0.0498014 	-0.266675 	0 -0.0500063 	-0.266645 	0 -0.0502113 	-0.266615 	0 -0.0504088 	-0.266585 	0 -0.0509263 	-0.266508 	0 -0.0514445 	-0.266431 	0 -0.0519626 	-0.266352 	0 -0.0524806 	-0.266273 	0 -0.0530012 	-0.266193 	0 -0.0537571 	-0.266072 	0 -0.0545134 	-0.265949 	0 -0.0552664 	-0.265824 	0 -0.0560184 	-0.265698 	0 -0.0567751 	-0.265569 	0 -0.0574265 	-0.265454 	0 -0.0580782 	-0.265337 	0 -0.0587296 	-0.26522 	0 -0.0593808 	-0.265101 	0 -0.0599614 	-0.264995 	0 -0.0601057 	-0.264969 	0 -0.0602506 	-0.264942 	0 -0.0603955 	-0.264915 	0 -0.0605404 	-0.264888 	0 -0.0606861 	-0.264861 	0 -0.0614919 	-0.264707 	0 -0.0622955 	-0.26455 	0 -0.0630987 	-0.264392 	0 -0.0639015 	-0.264232 	0 -0.06471 	-0.26407 	0 -0.0655174 	-0.263902 	0 -0.0663247 	-0.263732 	0 -0.0671316 	-0.263561 	0 -0.0679381 	-0.263389 	0 -0.0686496 	-0.263235 	0 -0.0686861 	-0.263228 	0 -0.0687226 	-0.26322 	0 -0.0687592 	-0.263212 	0 -0.0687959 	-0.263204 	0 -0.0688329 	-0.263196 	0 -0.069674 	-0.263008 	0 -0.0705143 	-0.262818 	0 -0.0713541 	-0.262626 	0 -0.0721935 	-0.262434 	0 -0.0730398 	-0.262238 	0 -0.0737578 	-0.262066 	0 -0.0744757 	-0.261894 	0 -0.0751932 	-0.26172 	0 -0.0759103 	-0.261546 	0 -0.0765603 	-0.261386 	0 -0.0767131 	-0.261349 	0 -0.0768661 	-0.261312 	0 -0.0770191 	-0.261274 	0 -0.0771721 	-0.261236 	0 -0.0773256 	-0.261198 	0 -0.0781978 	-0.260979 	0 -0.0790678 	-0.260756 	0 -0.0799369 	-0.260533 	0 -0.0808054 	-0.260307 	0 -0.0816822 	-0.260078 	0 -0.0821145 	-0.259962 	0 -0.0825469 	-0.259846 	0 -0.0829791 	-0.259729 	0 -0.0834112 	-0.259612 	0 -0.0838213 	-0.259501 	0 -0.0842784 	-0.259377 	0 -0.0847355 	-0.259252 	0 -0.0851925 	-0.259128 	0 -0.0856493 	-0.259003 	0 -0.0861088 	-0.258877 	0 -0.0870068 	-0.258625 	0 -0.0879044 	-0.258371 	0 -0.0888013 	-0.258116 	0 -0.0896975 	-0.25786 	0 -0.0905579 	-0.257612 	0 -0.0905671 	-0.25761 	0 -0.0905762 	-0.257607 	0 -0.0905854 	-0.257605 	0 -0.0905946 	-0.257602 	0 -0.0906038 	-0.257599 	0 -0.0915152 	-0.257331 	0 -0.0924258 	-0.257062 	0 -0.0933358 	-0.256791 	0 -0.0942452 	-0.256519 	0 -0.0951653 	-0.256242 	0 -0.0955086 	-0.256137 	0 -0.0958519 	-0.256031 	0 -0.0961951 	-0.255925 	0 -0.0965382 	-0.255819 	0 -0.0968694 	-0.255717 	0 -0.0974544 	-0.255536 	0 -0.0980393 	-0.255355 	0 -0.0986239 	-0.255174 	0 -0.0992082 	-0.254992 	0 -0.0997973 	-0.254808 	0 -0.100408 	-0.254614 	0 -0.101018 	-0.254419 	0 -0.101628 	-0.254224 	0 -0.102238 	-0.254028 	0 -0.102812 	-0.253842 	0 -0.10315 	-0.253734 	0 -0.103487 	-0.253626 	0 -0.103825 	-0.253517 	0 -0.104162 	-0.253408 	0 -0.104501 	-0.253298 	0 -0.105303 	-0.253035 	0 -0.106105 	-0.252771 	0 -0.106907 	-0.252505 	0 -0.107707 	-0.252239 	0 -0.10845 	-0.251991 	0 -0.108615 	-0.251936 	0 -0.108781 	-0.251881 	0 -0.108947 	-0.251826 	0 -0.109112 	-0.251771 	0 -0.109279 	-0.251715 	0 -0.110204 	-0.251403 	0 -0.111129 	-0.251089 	0 -0.112053 	-0.250774 	0 -0.112976 	-0.250458 	0 -0.113826 	-0.250165 	0 -0.113887 	-0.250144 	0 -0.113948 	-0.250123 	0 -0.11401 	-0.250102 	0 -0.114071 	-0.250081 	0 -0.114133 	-0.25006 	0 -0.115118 	-0.249718 	0 -0.116103 	-0.249375 	0 -0.117086 	-0.249031 	0 -0.118068 	-0.248686 	0 -0.118972 	-0.248366 	0 -0.118991 	-0.248359 	0 -0.11901 	-0.248353 	0 -0.119029 	-0.248346 	0 -0.119048 	-0.248339 	0 -0.119067 	-0.248333 	0 -0.120053 	-0.247983 	0 -0.121039 	-0.247631 	0 -0.122024 	-0.247278 	0 -0.123007 	-0.246924 	0 -0.123915 	-0.246596 	0 -0.123948 	-0.246584 	0 -0.123982 	-0.246572 	0 -0.124016 	-0.246559 	0 -0.12405 	-0.246547 	0 -0.124084 	-0.246535 	0 -0.125016 	-0.246197 	0 -0.125948 	-0.245858 	0 -0.126878 	-0.245517 	0 -0.127807 	-0.245176 	0 -0.128672 	-0.244857 	0 -0.128775 	-0.244819 	0 -0.128878 	-0.244781 	0 -0.128981 	-0.244744 	0 -0.129085 	-0.244706 	0 -0.129188 	-0.244668 	0 -0.130014 	-0.244362 	0 -0.130839 	-0.244056 	0 -0.131663 	-0.243749 	0 -0.132486 	-0.243442 	0 -0.133261 	-0.243151 	0 -0.133485 	-0.243068 	0 -0.133709 	-0.242984 	0 -0.133934 	-0.2429 	0 -0.134158 	-0.242816 	0 -0.134383 	-0.242732 	0 -0.135053 	-0.24248 	0 -0.135722 	-0.242228 	0 -0.13639 	-0.241975 	0 -0.137058 	-0.241722 	0 -0.137695 	-0.241479 	0 -0.13809 	-0.24133 	0 -0.138486 	-0.241181 	0 -0.138881 	-0.241032 	0 -0.139276 	-0.240882 	0 -0.139674 	-0.24073 	0 -0.14014 	-0.240553 	0 -0.140606 	-0.240374 	0 -0.141072 	-0.240196 	0 -0.141537 	-0.240017 	0 -0.141989 	-0.239843 	0 -0.142603 	-0.239609 	0 -0.143217 	-0.239375 	0 -0.14383 	-0.23914 	0 -0.144443 	-0.238905 	0 -0.145064 	-0.238666 	0 -0.145283 	-0.238581 	0 -0.145502 	-0.238497 	0 -0.145721 	-0.238412 	0 -0.145939 	-0.238327 	0 -0.146155 	-0.238243 	0 -0.146976 	-0.237928 	0 -0.147796 	-0.237613 	0 -0.148615 	-0.237296 	0 -0.149433 	-0.236979 	0 -0.150209 	-0.236676 	0 -0.150278 	-0.236649 	0 -0.150348 	-0.236622 	0 -0.150417 	-0.236595 	0 -0.150487 	-0.236568 	0 -0.150557 	-0.236541 	0 -0.151284 	-0.236259 	0 -0.152011 	-0.235976 	0 -0.152736 	-0.235692 	0 -0.153461 	-0.235408 	0 -0.154155 	-0.235136 	0 -0.154555 	-0.23498 	0 -0.154954 	-0.234825 	0 -0.155354 	-0.234669 	0 -0.155753 	-0.234513 	0 -0.156156 	-0.234356 	0 -0.156525 	-0.234211 	0 -0.156894 	-0.234066 	0 -0.157263 	-0.233921 	0 -0.157631 	-0.233776 	0 -0.157992 	-0.233634 	0 -0.158749 	-0.233339 	0 -0.159504 	-0.233045 	0 -0.160259 	-0.232749 	0 -0.161013 	-0.232454 	0 -0.161735 	-0.232169 	0 -0.161762 	-0.232158 	0 -0.161788 	-0.232148 	0 -0.161815 	-0.232137 	0 -0.161842 	-0.232127 	0 -0.161869 	-0.232116 	0 -0.162581 	-0.231837 	0 -0.163292 	-0.231557 	0 -0.164003 	-0.231276 	0 -0.164712 	-0.230996 	0 -0.165395 	-0.230725 	0 -0.165854 	-0.230545 	0 -0.166314 	-0.230365 	0 -0.166773 	-0.230184 	0 -0.167232 	-0.230004 	0 -0.167696 	-0.229821 	0 -0.167949 	-0.229721 	0 -0.168203 	-0.229621 	0 -0.168456 	-0.229521 	0 -0.16871 	-0.22942 	0 -0.16896 	-0.229321 	0 -0.169665 	-0.229046 	0 -0.17037 	-0.228771 	0 -0.171073 	-0.228494 	0 -0.171774 	-0.228216 	0 -0.17245 	-0.227947 	0 -0.172689 	-0.227853 	0 -0.172927 	-0.227759 	0 -0.173166 	-0.227666 	0 -0.173404 	-0.227572 	0 -0.173645 	-0.227477 	0 -0.17409 	-0.227302 	0 -0.174536 	-0.227126 	0 -0.174981 	-0.22695 	0 -0.175426 	-0.226774 	0 -0.175862 	-0.226601 	0 -0.176535 	-0.226339 	0 -0.177208 	-0.226076 	0 -0.177879 	-0.225813 	0 -0.17855 	-0.22555 	0 -0.179198 	-0.225292 	0 -0.179302 	-0.225251 	0 -0.179406 	-0.225211 	0 -0.17951 	-0.22517 	0 -0.179614 	-0.225129 	0 -0.179719 	-0.225088 	0 -0.180273 	-0.22487 	0 -0.180827 	-0.224653 	0 -0.18138 	-0.224435 	0 -0.181933 	-0.224217 	0 -0.182472 	-0.224004 	0 -0.183117 	-0.223753 	0 -0.183761 	-0.223503 	0 -0.184404 	-0.223252 	0 -0.185047 	-0.223001 	0 -0.185671 	-0.222755 	0 -0.18572 	-0.222736 	0 -0.185771 	-0.222716 	0 -0.185821 	-0.222697 	0 -0.185871 	-0.222677 	0 -0.185921 	-0.222657 	0 -0.186504 	-0.22243 	0 -0.187087 	-0.222202 	0 -0.187668 	-0.221974 	0 -0.188249 	-0.221746 	0 -0.188816 	-0.221524 	0 -0.189436 	-0.221285 	0 -0.190054 	-0.221046 	0 -0.190673 	-0.220807 	0 -0.19129 	-0.220567 	0 -0.19189 	-0.220332 	0 -0.191963 	-0.220304 	0 -0.192036 	-0.220275 	0 -0.192109 	-0.220247 	0 -0.192182 	-0.220218 	0 -0.192256 	-0.22019 	0 -0.192791 	-0.219983 	0 -0.193326 	-0.219775 	0 -0.19386 	-0.219568 	0 -0.194393 	-0.21936 	0 -0.194915 	-0.219157 	0 -0.195512 	-0.218929 	0 -0.196108 	-0.218702 	0 -0.196703 	-0.218474 	0 -0.197297 	-0.218245 	0 -0.197875 	-0.218018 	0 -0.198045 	-0.217953 	0 -0.198215 	-0.217887 	0 -0.198385 	-0.217822 	0 -0.198555 	-0.217757 	0 -0.198727 	-0.217691 	0 -0.19914 	-0.217532 	0 -0.199554 	-0.217374 	0 -0.199967 	-0.217215 	0 -0.20038 	-0.217056 	0 -0.200786 	-0.216899 	0 -0.201362 	-0.216683 	0 -0.201938 	-0.216466 	0 -0.202512 	-0.216248 	0 -0.203083 	-0.216027 	0 -0.203642 	-0.21581 	0 -0.20398 	-0.215682 	0 -0.204319 	-0.215554 	0 -0.204657 	-0.215426 	0 -0.204995 	-0.215297 	0 -0.205336 	-0.215168 	0 -0.205558 	-0.215084 	0 -0.20578 	-0.214999 	0 -0.206002 	-0.214915 	0 -0.206224 	-0.214831 	0 -0.206444 	-0.214747 	0 -0.207001 	-0.214542 	0 -0.207556 	-0.214333 	0 -0.20811 	-0.214123 	0 -0.208662 	-0.213912 	0 -0.209204 	-0.213705 	0 -0.209747 	-0.213503 	0 -0.21029 	-0.213301 	0 -0.210832 	-0.213099 	0 -0.211373 	-0.212897 	0 -0.211904 	-0.212697 	0 -0.211941 	-0.212684 	0 -0.211977 	-0.21267 	0 -0.212014 	-0.212656 	0 -0.212051 	-0.212642 	0 -0.212088 	-0.212628 	0 -0.212588 	-0.212442 	0 -0.213087 	-0.212256 	0 -0.213585 	-0.21207 	0 -0.214083 	-0.211884 	0 -0.214573 	-0.2117 	0 -0.2151 	-0.211509 	0 -0.215627 	-0.211317 	0 -0.216152 	-0.211125 	0 -0.216675 	-0.210929 	0 -0.217188 	-0.210735 	0 -0.217546 	-0.210604 	0 -0.217903 	-0.210473 	0 -0.21826 	-0.210342 	0 -0.218618 	-0.210211 	0 -0.218979 	-0.210079 	0 -0.219134 	-0.210022 	0 -0.219289 	-0.209965 	0 -0.219445 	-0.209908 	0 -0.2196 	-0.209851 	0 -0.219755 	-0.209794 	0 -0.220267 	-0.209613 	0 -0.220776 	-0.209426 	0 -0.221284 	-0.20924 	0 -0.221791 	-0.209053 	0 -0.222291 	-0.208869 	0 -0.22279 	-0.208691 	0 -0.22329 	-0.208513 	0 -0.223789 	-0.208335 	0 -0.224286 	-0.208155 	0 -0.224774 	-0.207974 	0 -0.22502 	-0.207885 	0 -0.225267 	-0.207796 	0 -0.225514 	-0.207708 	0 -0.225761 	-0.207619 	0 -0.22601 	-0.207529 	0 -0.226252 	-0.207443 	0 -0.226494 	-0.207356 	0 -0.226736 	-0.20727 	0 -0.226978 	-0.207183 	0 -0.227218 	-0.207097 	0 -0.227705 	-0.206929 	0 -0.228189 	-0.206757 	0 -0.228672 	-0.206583 	0 -0.229154 	-0.206409 	0 -0.22963 	-0.206238 	0 -0.230105 	-0.206073 	0 -0.23058 	-0.205908 	0 -0.231054 	-0.205742 	0 -0.231528 	-0.205576 	0 -0.231992 	-0.205407 	0 -0.232229 	-0.205324 	0 -0.232466 	-0.205241 	0 -0.232703 	-0.205158 	0 -0.23294 	-0.205075 	0 -0.233179 	-0.204991 	0 -0.233407 	-0.204911 	0 -0.233635 	-0.204832 	0 -0.233864 	-0.204752 	0 -0.234092 	-0.204672 	0 -0.23432 	-0.204593 	0 -0.234783 	-0.204438 	0 -0.235244 	-0.204278 	0 -0.235704 	-0.204116 	0 -0.236163 	-0.203955 	0 -0.236617 	-0.203795 	0 -0.23707 	-0.203643 	0 -0.237523 	-0.20349 	0 -0.237975 	-0.203338 	0 -0.238425 	-0.203181 	0 -0.238868 	-0.203024 	0 -0.239189 	-0.202915 	0 -0.239511 	-0.202805 	0 -0.239832 	-0.202696 	0 -0.240153 	-0.202587 	0 -0.240478 	-0.202476 	0 -0.240598 	-0.202435 	0 -0.240719 	-0.202395 	0 -0.240839 	-0.202354 	0 -0.24096 	-0.202313 	0 -0.241081 	-0.202272 	0 -0.241522 	-0.202127 	0 -0.241962 	-0.201978 	0 -0.242401 	-0.201829 	0 -0.242839 	-0.20168 	0 -0.243273 	-0.201532 	0 -0.243706 	-0.201392 	0 -0.244138 	-0.201251 	0 -0.244569 	-0.201109 	0 -0.244997 	-0.200962 	0 -0.245421 	-0.200816 	0 -0.245843 	-0.200678 	0 -0.246266 	-0.20054 	0 -0.246688 	-0.200401 	0 -0.247109 	-0.200263 	0 -0.247525 	-0.200124 	0 -0.247599 	-0.200099 	0 -0.247673 	-0.200075 	0 -0.247748 	-0.20005 	0 -0.247822 	-0.200026 	0 -0.247897 	-0.200001 	0 -0.248241 	-0.199889 	0 -0.248585 	-0.199776 	0 -0.248929 	-0.199664 	0 -0.249273 	-0.199552 	0 -0.249614 	-0.19944 	0 -0.250028 	-0.199312 	0 -0.250441 	-0.199181 	0 -0.250851 	-0.199046 	0 -0.251261 	-0.19891 	0 -0.251667 	-0.198776 	0 -0.252071 	-0.19865 	0 -0.252476 	-0.198524 	0 -0.25288 	-0.198398 	0 -0.253281 	-0.198268 	0 -0.253678 	-0.198135 	0 -0.254026 	-0.198026 	0 -0.254375 	-0.197916 	0 -0.254723 	-0.197806 	0 -0.255071 	-0.197697 	0 -0.255424 	-0.197585 	0 -0.255469 	-0.197571 	0 -0.255514 	-0.197557 	0 -0.255559 	-0.197543 	0 -0.255605 	-0.197529 	0 -0.255651 	-0.197514 	0 -0.256046 	-0.197393 	0 -0.25644 	-0.19727 	0 -0.256833 	-0.197146 	0 -0.257226 	-0.197023 	0 -0.257616 	-0.1969 	0 -0.258004 	-0.196787 	0 -0.258392 	-0.196672 	0 -0.258776 	-0.196551 	0 -0.25916 	-0.19643 	0 -0.259541 	-0.196309 	0 -0.259919 	-0.196197 	0 -0.260298 	-0.196085 	0 -0.260677 	-0.195974 	0 -0.261053 	-0.195858 	0 -0.261426 	-0.19574 	0 -0.261747 	-0.195644 	0 -0.262068 	-0.195549 	0 -0.26239 	-0.195453 	0 -0.26271 	-0.195357 	0 -0.263035 	-0.195261 	0 -0.263083 	-0.195247 	0 -0.263131 	-0.195233 	0 -0.263179 	-0.195218 	0 -0.263227 	-0.195204 	0 -0.263275 	-0.19519 	0 -0.263645 	-0.195083 	0 -0.264015 	-0.194975 	0 -0.264384 	-0.194866 	0 -0.264753 	-0.194758 	0 -0.26512 	-0.19465 	0 -0.265483 	-0.194552 	0 -0.265847 	-0.194451 	0 -0.266207 	-0.194345 	0 -0.266567 	-0.194239 	0 -0.266925 	-0.194133 	0 -0.26728 	-0.194037 	0 -0.267636 	-0.193941 	0 -0.267991 	-0.193845 	0 -0.268343 	-0.193743 	0 -0.268693 	-0.193639 	0 -0.26904 	-0.193546 	0 -0.269387 	-0.193453 	0 -0.269733 	-0.193359 	0 -0.270079 	-0.193266 	0 -0.270423 	-0.193171 	0 -0.270478 	-0.193156 	0 -0.270534 	-0.193141 	0 -0.27059 	-0.193126 	0 -0.270646 	-0.193111 	0 -0.270703 	-0.193096 	0 -0.270992 	-0.19302 	0 -0.271282 	-0.192944 	0 -0.271571 	-0.192868 	0 -0.27186 	-0.192792 	0 -0.272148 	-0.192716 	0 -0.27249 	-0.192637 	0 -0.27283 	-0.192551 	0 -0.273168 	-0.192463 	0 -0.273507 	-0.192375 	0 -0.273844 	-0.192288 	0 -0.274177 	-0.192212 	0 -0.274511 	-0.192137 	0 -0.274843 	-0.192058 	0 -0.275174 	-0.191973 	0 -0.275503 	-0.191889 	0 -0.275828 	-0.191818 	0 -0.276154 	-0.191746 	0 -0.276479 	-0.191674 	0 -0.276804 	-0.191602 	0 -0.277126 	-0.191522 	0 -0.277377 	-0.191469 	0 -0.277628 	-0.191416 	0 -0.277879 	-0.191363 	0 -0.27813 	-0.19131 	0 -0.278384 	-0.191257 	0 -0.27845 	-0.191243 	0 -0.278518 	-0.191229 	0 -0.278585 	-0.191215 	0 -0.278653 	-0.191201 	0 -0.278721 	-0.191187 	0 -0.27904 	-0.191128 	0 -0.279359 	-0.191067 	0 -0.279678 	-0.191005 	0 -0.279996 	-0.190943 	0 -0.280314 	-0.190882 	0 -0.280627 	-0.190836 	0 -0.28094 	-0.190786 	0 -0.281251 	-0.19073 	0 -0.281561 	-0.190674 	0 -0.281871 	-0.190619 	0 -0.282177 	-0.19058 	0 -0.282483 	-0.190541 	0 -0.282789 	-0.190501 	0 -0.283092 	-0.190452 	0 -0.283394 	-0.190404 	0 -0.283692 	-0.190373 	0 -0.283991 	-0.190343 	0 -0.28429 	-0.190313 	0 -0.284588 	-0.190282 	0 -0.284883 	-0.190242 	0 -0.285108 	-0.190226 	0 -0.285334 	-0.19021 	0 -0.28556 	-0.190194 	0 -0.285786 	-0.190177 	0 -0.286014 	-0.190161 	0 -0.28608 	-0.190156 	0 -0.286146 	-0.190152 	0 -0.286213 	-0.190147 	0 -0.286279 	-0.190142 	0 -0.286347 	-0.190138 	0 -0.28664 	-0.190131 	0 -0.286933 	-0.190121 	0 -0.287225 	-0.190112 	0 -0.287518 	-0.190102 	0 -0.28781 	-0.190093 	0 -0.288097 	-0.190106 	0 -0.288384 	-0.190114 	0 -0.288669 	-0.190117 	0 -0.288954 	-0.19012 	0 -0.28924 	-0.190124 	0 -0.289519 	-0.190152 	0 -0.2898 	-0.190181 	0 -0.29008 	-0.190206 	0 -0.290358 	-0.190224 	0 -0.290636 	-0.190242 	0 -0.290909 	-0.190287 	0 -0.291183 	-0.190333 	0 -0.291456 	-0.190379 	0 -0.291729 	-0.190422 	0 -0.292 	-0.190457 	0 -0.292266 	-0.190522 	0 -0.292532 	-0.190587 	0 -0.292799 	-0.190652 	0 -0.293065 	-0.190718 	0 -0.293332 	-0.190782 	0 -0.293363 	-0.190792 	0 -0.293395 	-0.190803 	0 -0.293428 	-0.190814 	0 -0.29346 	-0.190825 	0 -0.293493 	-0.190836 	0 -0.293727 	-0.190913 	0 -0.293962 	-0.190991 	0 -0.294197 	-0.191069 	0 -0.294432 	-0.191147 	0 -0.294668 	-0.191226 	0 -0.29493 	-0.191352 	0 -0.295192 	-0.191466 	0 -0.295453 	-0.191581 	0 -0.295715 	-0.191695 	0 -0.295977 	-0.19181 	0 -0.296233 	-0.191966 	0 -0.296489 	-0.192123 	0 -0.296744 	-0.192266 	0 -0.296999 	-0.192409 	0 -0.297255 	-0.192553 	0 -0.297504 	-0.192741 	0 -0.297753 	-0.19293 	0 -0.298003 	-0.19312 	0 -0.298252 	-0.193296 	0 -0.298502 	-0.193473 	0 -0.298744 	-0.193697 	0 -0.298987 	-0.193924 	0 -0.29923 	-0.19415 	0 -0.299473 	-0.194376 	0 -0.299717 	-0.194591 	0 -0.299902 	-0.1948 	0 -0.300088 	-0.19501 	0 -0.300274 	-0.19522 	0 -0.30046 	-0.19543 	0 -0.300647 	-0.19564 	0 -0.300699 	-0.195697 	0 -0.300752 	-0.195755 	0 -0.300804 	-0.195813 	0 -0.300857 	-0.195871 	0 -0.300912 	-0.195931 	0 -0.30115 	-0.19625 	0 -0.30139 	-0.196567 	0 -0.30163 	-0.196883 	0 -0.30187 	-0.1972 	0 -0.302112 	-0.197519 	0 -0.302345 	-0.197904 	0 -0.302578 	-0.198276 	0 -0.302812 	-0.198643 	0 -0.303046 	-0.199011 	0 -0.303283 	-0.199381 	0 -0.303509 	-0.199822 	0 -0.303736 	-0.200265 	0 -0.303964 	-0.200695 	0 -0.304192 	-0.201118 	0 -0.304423 	-0.201544 	0 -0.304643 	-0.202048 	0 -0.304864 	-0.202553 	0 -0.305086 	-0.203059 	0 -0.305309 	-0.20355 	0 -0.305534 	-0.204039 	0 -0.305748 	-0.20461 	0 -0.305963 	-0.205184 	0 -0.306179 	-0.205757 	0 -0.306395 	-0.20633 	0 -0.306615 	-0.206895 	0 -0.30674 	-0.207283 	0 -0.306866 	-0.207673 	0 -0.306992 	-0.208063 	0 -0.307119 	-0.208453 	0 -0.307245 	-0.208841 	0 -0.307332 	-0.2091 	0 -0.30742 	-0.209361 	0 -0.307509 	-0.209622 	0 -0.307597 	-0.209883 	0 -0.307688 	-0.210147 	0 -0.307898 	-0.210889 	0 -0.308112 	-0.211623 	0 -0.308326 	-0.212356 	0 -0.308541 	-0.213089 	0 -0.30876 	-0.21383 	0 -0.308963 	-0.214677 	0 -0.309171 	-0.21551 	0 -0.309379 	-0.21633 	0 -0.309589 	-0.217149 	0 -0.309802 	-0.21798 	0 -0.31 	-0.218921 	0 -0.310201 	-0.219864 	0 -0.310403 	-0.220792 	0 -0.310607 	-0.221705 	0 -0.310816 	-0.22263 	0 -0.311008 	-0.223672 	0 -0.311203 	-0.224717 	0 -0.311398 	-0.22576 	0 -0.311596 	-0.22679 	0 -0.3118 	-0.227818 	0 -0.311987 	-0.228968 	0 -0.312176 	-0.23012 	0 -0.312366 	-0.231271 	0 -0.312558 	-0.23242 	0 -0.312755 	-0.23358 	0 -0.312805 	-0.233928 	0 -0.312855 	-0.23428 	0 -0.312906 	-0.234632 	0 -0.312957 	-0.234983 	0 -0.313009 	-0.235336 	0 -0.313149 	-0.236256 	0 -0.313291 	-0.23718 	0 -0.313433 	-0.238103 	0 -0.313576 	-0.239025 	0 -0.313723 	-0.239961 	0 -0.313906 	-0.241388 	0 -0.314095 	-0.242786 	0 -0.314286 	-0.244181 	0 -0.314477 	-0.245574 	0 -0.314675 	-0.246997 	0 -0.314852 	-0.248561 	0 -0.315032 	-0.250125 	0 -0.315217 	-0.251647 	0 -0.315404 	-0.253166 	0 -0.315598 	-0.254721 	0 -0.315769 	-0.256419 	0 -0.315943 	-0.25812 	0 -0.316118 	-0.259817 	0 -0.3163 	-0.261474 	0 -0.316489 	-0.263166 	0 -0.316655 	-0.265005 	0 -0.316823 	-0.266845 	0 -0.316994 	-0.268682 	0 -0.317166 	-0.270514 	0 -0.317349 	-0.272367 	0 -0.317431 	-0.273383 	0 -0.317514 	-0.274404 	0 -0.317598 	-0.275423 	0 -0.317682 	-0.276441 	0 -0.317766 	-0.277443 	0 -0.317853 	-0.278423 	0 -0.317941 	-0.279408 	0 -0.31803 	-0.280391 	0 -0.318119 	-0.281374 	0 -0.318211 	-0.282375 	0 -0.318373 	-0.284563 	0 -0.318542 	-0.286718 	0 -0.318714 	-0.288868 	0 -0.318888 	-0.291012 	0 -0.319071 	-0.293225 	0 -0.319224 	-0.295591 	0 -0.319381 	-0.297954 	0 -0.319547 	-0.300257 	0 -0.319717 	-0.302554 	0 -0.319895 	-0.304931 	0 -0.320042 	-0.307458 	0 -0.320193 	-0.309984 	0 -0.320347 	-0.312502 	0 -0.320508 	-0.314975 	0 -0.320682 	-0.317519 	0 -0.320823 	-0.32021 	0 -0.320969 	-0.3229 	0 -0.321117 	-0.32558 	0 -0.321267 	-0.328252 	0 -0.321429 	-0.331016 	0 -0.321448 	-0.331419 	0 -0.321468 	-0.331829 	0 -0.321487 	-0.332238 	0 -0.321507 	-0.33265 	0 -0.321528 	-0.333061 	0 -0.321657 	-0.335539 	0 -0.321789 	-0.338017 	0 -0.321923 	-0.340488 	0 -0.32206 	-0.342952 	0 -0.322204 	-0.345506 	0 -0.322337 	-0.348637 	0 -0.32248 	-0.351716 	0 -0.32263 	-0.354763 	0 -0.322782 	-0.357799 	0 -0.322946 	-0.36097 	0 -0.323072 	-0.364276 	0 -0.323203 	-0.367576 	0 -0.323337 	-0.370861 	0 -0.323484 	-0.374066 	0 -0.323643 	-0.377423 	0 -0.323763 	-0.380905 	0 -0.323887 	-0.384381 	0 -0.324015 	-0.387843 	0 -0.324146 	-0.39129 	0 -0.324293 	-0.394884 	0 -0.324313 	-0.395559 	0 -0.324334 	-0.396241 	0 -0.324356 	-0.396923 	0 -0.324378 	-0.397605 	0 -0.3244 	-0.398288 	0 -0.324507 	-0.401309 	0 -0.324618 	-0.404326 	0 -0.324731 	-0.40