# vtk DataFile Version 2.0
track0
ASCII
DATASET POLYDATA
POINTS 12145 float
-0.0205 0.001 1e-05
-0.0204874 0.0011 1e-05
-0.0204747 0.00119999 1e-05
-0.0204619 0.00129996 1e-05
-0.0204489 0.00139991 1e-05
-0.0204359 0.0015 1e-05
-0.0204227 0.0016 1e-05
-0.0204093 0.00169998 1e-05
-0.0203958 0.00179994 1e-05
-0.0203822 0.00189988 1e-05
-0.0203684 0.002 1e-05
-0.0203544 0.0021 1e-05
-0.0203403 0.00219997 1e-05
-0.0203259 0.00229992 1e-05
-0.0203114 0.00239984 1e-05
-0.0202966 0.0025 1e-05
-0.0202944 0.00251508 1e-05
-0.0202921 0.00253016 1e-05
-0.0202899 0.00254524 1e-05
-0.0202876 0.00256032 1e-05
-0.0202854 0.00257509 1e-05
-0.0202726 0.00266007 1e-05
-0.0202596 0.00274503 1e-05
-0.0202465 0.00282996 1e-05
-0.0202332 0.00291488 1e-05
-0.0202198 0.003 1e-05
-0.0202038 0.0031 1e-05
-0.0201875 0.00319996 1e-05
-0.020171 0.00329989 1e-05
-0.0201543 0.00339977 1e-05
-0.0201373 0.0035 1e-05
-0.0201201 0.0036 1e-05
-0.0201027 0.00369996 1e-05
-0.0200849 0.00379987 1e-05
-0.020067 0.00389973 1e-05
-0.0200487 0.004 1e-05
-0.0200434 0.00402846 1e-05
-0.0200381 0.00405691 1e-05
-0.0200328 0.00408536 1e-05
-0.0200275 0.0041138 1e-05
-0.0200223 0.00414109 1e-05
-0.0200087 0.00421288 1e-05
-0.019995 0.00428463 1e-05
-0.0199812 0.00435636 1e-05
-0.0199672 0.00442806 1e-05
-0.019953 0.0045 1e-05
-0.0199331 0.0046 1e-05
-0.0199129 0.00469994 1e-05
-0.0198924 0.00479983 1e-05
-0.0198717 0.00489966 1e-05
-0.0198505 0.005 1e-05
-0.0198327 0.00508342 1e-05
-0.0198147 0.00516679 1e-05
-0.0197964 0.00525012 1e-05
-0.019778 0.0053334 1e-05
-0.0197614 0.00540758 1e-05
-0.0197572 0.00542606 1e-05
-0.019753 0.00544454 1e-05
-0.0197488 0.00546302 1e-05
-0.0197446 0.0054815 1e-05
-0.0197403 0.0055 1e-05
-0.0197174 0.0056 1e-05
-0.0196942 0.00569993 1e-05
-0.0196707 0.00579979 1e-05
-0.0196469 0.00589958 1e-05
-0.0196226 0.006 1e-05
-0.0195986 0.00609802 1e-05
-0.0195743 0.00619596 1e-05
-0.0195497 0.00629383 1e-05
-0.0195247 0.00639162 1e-05
-0.0195025 0.00647784 1e-05
-0.0195014 0.00648227 1e-05
-0.0195002 0.0064867 1e-05
-0.019499 0.00649113 1e-05
-0.0194979 0.00649557 1e-05
-0.0194967 0.0065 1e-05
-0.0194706 0.0066 1e-05
-0.0194441 0.00669992 1e-05
-0.0194173 0.00679975 1e-05
-0.0193902 0.0068995 1e-05
-0.0193626 0.007 1e-05
-0.0193392 0.00708389 1e-05
-0.0193156 0.00716771 1e-05
-0.0192918 0.00725148 1e-05
-0.0192677 0.00733517 1e-05
-0.0192457 0.00741098 1e-05
-0.0192405 0.00742879 1e-05
-0.0192353 0.00744659 1e-05
-0.0192301 0.00746438 1e-05
-0.0192248 0.00748218 1e-05
-0.0192196 0.0075 1e-05
-0.01919 0.0076 1e-05
-0.01916 0.0076999 1e-05
-0.0191298 0.0077997 1e-05
-0.0190992 0.00789941 1e-05
-0.0190679 0.008 1e-05
-0.0190526 0.00804897 1e-05
-0.0190371 0.00809791 1e-05
-0.0190216 0.00814683 1e-05
-0.0190059 0.00819572 1e-05
-0.018991 0.00824209 1e-05
-0.0189744 0.00829367 1e-05
-0.0189576 0.00834523 1e-05
-0.0189408 0.00839675 1e-05
-0.0189239 0.00844824 1e-05
-0.0189067 0.0085 1e-05
-0.0188735 0.0086 1e-05
-0.0188399 0.00869989 1e-05
-0.0188059 0.00879966 1e-05
-0.0187716 0.00889931 1e-05
-0.0187384 0.00899491 1e-05
-0.018738 0.00899593 1e-05
-0.0187377 0.00899695 1e-05
-0.0187373 0.00899797 1e-05
-0.018737 0.00899898 1e-05
-0.0187366 0.009 1e-05
-0.0187014 0.0091 1e-05
-0.0186659 0.00919988 1e-05
-0.01863 0.00929963 1e-05
-0.0185938 0.00939926 1e-05
-0.0185568 0.0095 1e-05
-0.018543 0.00953718 1e-05
-0.0185292 0.00957434 1e-05
-0.0185152 0.00961149 1e-05
-0.0185013 0.00964862 1e-05
-0.0184878 0.00968443 1e-05
-0.0184639 0.00974755 1e-05
-0.0184398 0.00981061 1e-05
-0.0184156 0.00987361 1e-05
-0.0183913 0.00993656 1e-05
-0.0183666 0.01 1e-05
-0.0183411 0.0100651 1e-05
-0.0183155 0.0101301 1e-05
-0.0182897 0.010195 1e-05
-0.0182638 0.0102599 1e-05
-0.0182392 0.010321 1e-05
-0.0182247 0.0103568 1e-05
-0.0182101 0.0103926 1e-05
-0.0181955 0.0104283 1e-05
-0.0181809 0.0104641 1e-05
-0.0181661 0.0105 1e-05
-0.0181314 0.0105841 1e-05
-0.0180965 0.0106682 1e-05
-0.0180612 0.0107521 1e-05
-0.0180258 0.0108359 1e-05
-0.0179926 0.0109136 1e-05
-0.0179852 0.0109309 1e-05
-0.0179777 0.0109481 1e-05
-0.0179702 0.0109654 1e-05
-0.0179628 0.0109827 1e-05
-0.0179553 0.011 1e-05
-0.0179138 0.0110955 1e-05
-0.017872 0.0111908 1e-05
-0.0178299 0.011286 1e-05
-0.0177874 0.0113811 1e-05
-0.017748 0.0114685 1e-05
-0.0177451 0.0114748 1e-05
-0.0177422 0.0114811 1e-05
-0.0177394 0.0114874 1e-05
-0.0177365 0.0114937 1e-05
-0.0177336 0.0115 1e-05
-0.017688 0.0116 1e-05
-0.017642 0.0116998 1e-05
-0.0175956 0.0117995 1e-05
-0.0175488 0.011899 1e-05
-0.0175053 0.0119905 1e-05
-0.0175044 0.0119924 1e-05
-0.0175035 0.0119943 1e-05
-0.0175026 0.0119962 1e-05
-0.0175017 0.0119981 1e-05
-0.0175008 0.012 1e-05
-0.0174536 0.0120985 1e-05
-0.017406 0.0121968 1e-05
-0.017358 0.0122949 1e-05
-0.0173097 0.0123929 1e-05
-0.0172647 0.0124832 1e-05
-0.017263 0.0124866 1e-05
-0.0172613 0.0124899 1e-05
-0.0172596 0.0124933 1e-05
-0.0172579 0.0124966 1e-05
-0.0172562 0.0125 1e-05
-0.0172102 0.0125915 1e-05
-0.0171638 0.0126829 1e-05
-0.0171171 0.012774 1e-05
-0.01707 0.0128651 1e-05
-0.0170259 0.0129497 1e-05
-0.0170206 0.0129597 1e-05
-0.0170153 0.0129698 1e-05
-0.01701 0.0129799 1e-05
-0.0170047 0.0129899 1e-05
-0.0169994 0.013 1e-05
-0.0169574 0.0130797 1e-05
-0.016915 0.0131592 1e-05
-0.0168725 0.0132386 1e-05
-0.0168297 0.0133179 1e-05
-0.0167891 0.0133924 1e-05
-0.0167773 0.0134139 1e-05
-0.0167655 0.0134354 1e-05
-0.0167537 0.0134569 1e-05
-0.0167418 0.0134784 1e-05
-0.0167299 0.0135 1e-05
-0.0166948 0.0135635 1e-05
-0.0166594 0.0136269 1e-05
-0.016624 0.0136901 1e-05
-0.0165884 0.0137533 1e-05
-0.0165542 0.0138136 1e-05
-0.0165329 0.0138509 1e-05
-0.0165116 0.0138881 1e-05
-0.0164903 0.0139253 1e-05
-0.0164688 0.0139625 1e-05
-0.0164472 0.014 1e-05
-0.016422 0.0140434 1e-05
-0.0163967 0.0140868 1e-05
-0.0163713 0.0141302 1e-05
-0.0163459 0.0141735 1e-05
-0.0163212 0.0142154 1e-05
-0.0162875 0.0142723 1e-05
-0.0162536 0.0143292 1e-05
-0.0162197 0.0143859 1e-05
-0.0161856 0.0144426 1e-05
-0.0161509 0.0145 1e-05
-0.0161387 0.01452 1e-05
-0.0161265 0.01454 1e-05
-0.0161143 0.0145601 1e-05
-0.0161021 0.0145801 1e-05
-0.01609 0.0145998 1e-05
-0.0160442 0.0146745 1e-05
-0.0159981 0.0147491 1e-05
-0.0159518 0.0148236 1e-05
-0.0159052 0.0148979 1e-05
-0.0158607 0.0149684 1e-05
-0.0158567 0.0149748 1e-05
-0.0158527 0.0149811 1e-05
-0.0158487 0.0149874 1e-05
-0.0158447 0.0149937 1e-05
-0.0158407 0.015 1e-05
-0.0157992 0.0150652 1e-05
-0.0157576 0.0151302 1e-05
-0.0157157 0.0151952 1e-05
-0.0156737 0.01526 1e-05
-0.0156333 0.015322 1e-05
-0.01561 0.0153576 1e-05
-0.0155866 0.0153931 1e-05
-0.0155631 0.0154287 1e-05
-0.0155396 0.0154642 1e-05
-0.0155158 0.0155 1e-05
-0.0154942 0.0155325 1e-05
-0.0154725 0.0155649 1e-05
-0.0154508 0.0155973 1e-05
-0.0154291 0.0156296 1e-05
-0.0154077 0.0156613 1e-05
-0.015363 0.0157275 1e-05
-0.015318 0.0157936 1e-05
-0.0152729 0.0158595 1e-05
-0.0152276 0.0159253 1e-05
-0.0151839 0.0159883 1e-05
-0.0151823 0.0159907 1e-05
-0.0151807 0.015993 1e-05
-0.015179 0.0159953 1e-05
-0.0151774 0.0159977 1e-05
-0.0151758 0.016 1e-05
-0.015133 0.0160613 1e-05
-0.0150901 0.0161225 1e-05
-0.015047 0.0161836 1e-05
-0.0150037 0.0162446 1e-05
-0.0149619 0.0163033 1e-05
-0.0149337 0.0163426 1e-05
-0.0149055 0.0163819 1e-05
-0.0148771 0.0164212 1e-05
-0.0148487 0.0164604 1e-05
-0.0148199 0.0165 1e-05
-0.0148043 0.0165214 1e-05
-0.0147886 0.0165428 1e-05
-0.014773 0.0165642 1e-05
-0.0147573 0.0165856 1e-05
-0.0147417 0.0166067 1e-05
-0.0146981 0.016666 1e-05
-0.0146542 0.0167252 1e-05
-0.0146102 0.0167842 1e-05
-0.0145661 0.0168432 1e-05
-0.0145233 0.0169 1e-05
-0.0145082 0.01692 1e-05
-0.0144931 0.01694 1e-05
-0.0144779 0.01696 1e-05
-0.0144627 0.0169799 1e-05
-0.0144474 0.017 1e-05
-0.0144193 0.0170369 1e-05
-0.0143911 0.0170737 1e-05
-0.0143628 0.0171105 1e-05
-0.0143345 0.0171472 1e-05
-0.0143067 0.0171832 1e-05
-0.0142637 0.0172385 1e-05
-0.0142206 0.0172938 1e-05
-0.0141773 0.017349 1e-05
-0.0141339 0.0174041 1e-05
-0.0140917 0.0174574 1e-05
-0.014085 0.0174659 1e-05
-0.0140782 0.0174744 1e-05
-0.0140714 0.0174829 1e-05
-0.0140646 0.0174915 1e-05
-0.0140578 0.0175 1e-05
-0.0140219 0.0175449 1e-05
-0.013986 0.0175897 1e-05
-0.01395 0.0176345 1e-05
-0.0139139 0.0176791 1e-05
-0.0138786 0.0177227 1e-05
-0.0138363 0.0177746 1e-05
-0.0137939 0.0178264 1e-05
-0.0137513 0.0178781 1e-05
-0.0137087 0.0179298 1e-05
-0.0136671 0.0179799 1e-05
-0.0136637 0.0179839 1e-05
-0.0136604 0.0179879 1e-05
-0.013657 0.017992 1e-05
-0.0136537 0.017996 1e-05
-0.0136503 0.018 1e-05
-0.0136117 0.0180462 1e-05
-0.013573 0.0180924 1e-05
-0.0135342 0.0181384 1e-05
-0.0134954 0.0181844 1e-05
-0.0134573 0.0182292 1e-05
-0.0134157 0.018278 1e-05
-0.013374 0.0183268 1e-05
-0.0133322 0.0183754 1e-05
-0.0132902 0.018424 1e-05
-0.0132493 0.0184712 1e-05
-0.0132442 0.018477 1e-05
-0.0132392 0.0184827 1e-05
-0.0132342 0.0184885 1e-05
-0.0132292 0.0184942 1e-05
-0.0132242 0.0185 1e-05
-0.0131879 0.0185415 1e-05
-0.0131516 0.018583 1e-05
-0.0131152 0.0186244 1e-05
-0.0130787 0.0186657 1e-05
-0.0130429 0.0187061 1e-05
-0.0130019 0.0187522 1e-05
-0.0129609 0.0187981 1e-05
-0.0129197 0.018844 1e-05
-0.0128785 0.0188898 1e-05
-0.0128381 0.0189345 1e-05
-0.0128262 0.0189476 1e-05
-0.0128143 0.0189607 1e-05
-0.0128024 0.0189738 1e-05
-0.0127905 0.0189869 1e-05
-0.0127785 0.019 1e-05
-0.0127498 0.0190314 1e-05
-0.0127211 0.0190628 1e-05
-0.0126923 0.0190942 1e-05
-0.0126635 0.0191255 1e-05
-0.012635 0.0191563 1e-05
-0.0125947 0.0191998 1e-05
-0.0125544 0.0192433 1e-05
-0.0125139 0.0192866 1e-05
-0.0124734 0.0193299 1e-05
-0.0124336 0.0193722 1e-05
-0.0124095 0.0193978 1e-05
-0.0123853 0.0194233 1e-05
-0.0123612 0.0194488 1e-05
-0.012337 0.0194743 1e-05
-0.0123125 0.0195 1e-05
-0.0122967 0.0195165 1e-05
-0.012281 0.019533 1e-05
-0.0122652 0.0195495 1e-05
-0.0122494 0.0195659 1e-05
-0.0122338 0.0195823 1e-05
-0.0121941 0.0196235 1e-05
-0.0121544 0.0196647 1e-05
-0.0121146 0.0197058 1e-05
-0.0120747 0.0197468 1e-05
-0.0120355 0.019787 1e-05
-0.0119962 0.0198271 1e-05
-0.0119568 0.0198672 1e-05
[...]
POINT_DATA 12145
 FIELD attributes 2
p 1 12145 float
-0.0114102 -0.0125678 -0.013723 -0.0148773 -0.0160314 -0.0171868 -0.0183323 -0.0194774 -0.0206221 -0.0217642 -0.0229083 -0.0240471 -0.0251856 -0.0263238 -0.0274619 -0.0286019 -0.028773 -0.0289441 -0.0291152 -0.0292863 -0.0294536 -0.0304185 -0.0313831 -0.0323475 -0.0333118 -0.0342784 -0.0354113 -0.0365433 -0.0376732 -0.0388028 -0.0399364 -0.0410654 -0.0421942 -0.0433225 -0.0444506 -0.0455816 -0.0459021 -0.0462226 -0.046543 -0.0468634 -0.0471708 -0.0479801 -0.0487891 -0.049598 -0.0504066 -0.0512179 -0.0523449 -0.0534713 -0.0545957 -0.0557194 -0.056849 -0.0577879 -0.0587264 -0.0596645 -0.0606023 -0.0614376 -0.061646 -0.0618544 -0.0620627 -0.0622711 -0.0624796 -0.0636064 -0.0647315 -0.0658561 -0.0669802 -0.0681117 -0.0692166 -0.070321 -0.0714248 -0.0725281 -0.0735009 -0.073551 -0.0736011 -0.0736512 -0.0737013 -0.0737513 -0.0748805 -0.0760087 -0.0771363 -0.0782633 -0.0793991 -0.0803485 -0.0812974 -0.0822457 -0.0831936 -0.0840523 -0.0842542 -0.084456 -0.0846578 -0.0848597 -0.0850618 -0.0861976 -0.0873317 -0.0884648 -0.0895972 -0.0907401 -0.0912976 -0.0918549 -0.0924121 -0.092969 -0.0934974 -0.0940857 -0.0946736 -0.0952614 -0.0958489 -0.0964394 -0.0975833 -0.0987262 -0.0998682 -0.101009 -0.102104 -0.102116 -0.102128 -0.102139 -0.102151 -0.102163 -0.103311 -0.104459 -0.105606 -0.106752 -0.107911 -0.10834 -0.108769 -0.109198 -0.109627 -0.110041 -0.110771 -0.1115 -0.112228 -0.112957 -0.113691 -0.114447 -0.115202 -0.115957 -0.116711 -0.117421 -0.117838 -0.118254 -0.11867 -0.119086 -0.119504 -0.120488 -0.12147 -0.122452 -0.123433 -0.124342 -0.124544 -0.124747 -0.124949 -0.125152 -0.125354 -0.126478 -0.127601 -0.128722 -0.129842 -0.130872 -0.130946 -0.131021 -0.131095 -0.13117 -0.131244 -0.132429 -0.133613 -0.134795 -0.135976 -0.137063 -0.137085 -0.137108 -0.137131 -0.137153 -0.137176 -0.138352 -0.139527 -0.1407 -0.141872 -0.142952 -0.142992 -0.143033 -0.143073 -0.143113 -0.143153 -0.144255 -0.145355 -0.146454 -0.147551 -0.148572 -0.148693 -0.148814 -0.148936 -0.149057 -0.149179 -0.150146 -0.151112 -0.152077 -0.15304 -0.153947 -0.154208 -0.15447 -0.154731 -0.154992 -0.155255 -0.156032 -0.156809 -0.157585 -0.15836 -0.159099 -0.159556 -0.160013 -0.160469 -0.160925 -0.161385 -0.161922 -0.162459 -0.162995 -0.16353 -0.16405 -0.164753 -0.165456 -0.166159 -0.16686 -0.167571 -0.167821 -0.168071 -0.168321 -0.16857 -0.168817 -0.16975 -0.170681 -0.17161 -0.172539 -0.173419 -0.173498 -0.173576 -0.173655 -0.173734 -0.173813 -0.174633 -0.175452 -0.17627 -0.177087 -0.177868 -0.178316 -0.178764 -0.179211 -0.179658 -0.180109 -0.180522 -0.180934 -0.181346 -0.181758 -0.182161 -0.183001 -0.18384 -0.184678 -0.185515 -0.186316 -0.186345 -0.186375 -0.186405 -0.186434 -0.186464 -0.18725 -0.188034 -0.188817 -0.189599 -0.190351 -0.190854 -0.191356 -0.191859 -0.19236 -0.192868 -0.193145 -0.193422 -0.193699 -0.193976 -0.194249 -0.195015 -0.195779 -0.196541 -0.197302 -0.198035 -0.198292 -0.198549 -0.198806 -0.199063 -0.199321 -0.199801 -0.200281 -0.200761 -0.201239 -0.201708 -0.202427 -0.203144 -0.203861 -0.204576 -0.205267 -0.205377 -0.205487 -0.205597 -0.205707 -0.205818 -0.206405 -0.206991 -0.207577 -0.208162 -0.208733 -0.209409 -0.210084 -0.210758 -0.211431 -0.212083 -0.212135 -0.212187 -0.212239 -0.212291 -0.212344 -0.21295 -0.213556 -0.214161 -0.214766 -0.215355 -0.215991 -0.216627 -0.217262 -0.217895 -0.218512 -0.218586 -0.21866 -0.218735 -0.218809 -0.218884 -0.21943 -0.219975 -0.220519 -0.221063 -0.221595 -0.222195 -0.222794 -0.223392 -0.223988 -0.224571 -0.224739 -0.224908 -0.225077 -0.225246 -0.225417 -0.225829 -0.226241 -0.226653 -0.227064 -0.227469 -0.228034 -0.228599 -0.229162 -0.229724 -0.230274 -0.230602 -0.230929 -0.231257 -0.231584 -0.231915 -0.23213 -0.232345 -0.232561 -0.232776 -0.23299 -0.233522 -0.234054 -0.234584 -0.235114 -0.235632 -0.236143 -0.236653 -0.237163 -0.237671 -0.238171 -0.238205 -0.238239 -0.238273 -0.238307 -0.238341 -0.238806 -0.239271 -0.239734 -0.240197 -0.240652 -0.241131 -0.24161 -0.242088 -0.242565 -0.243035 -0.243355 -0.243674 -0.243993 -0.244311 -0.244633 -0.244772 -0.244912 -0.245051 -0.24519 -0.245329 -0.245777 -0.246225 -0.246673 -0.24712 -0.24756 -0.247988 -0.248416 -0.248843 -0.249269 -0.249689 -0.249895 -0.250103 -0.250309 -0.250516 -0.250725 -0.250929 -0.251133 -0.251337 -0.25154 -0.251743 -0.252141 -0.252539 -0.252937 -0.253334 -0.253725 -0.254102 -0.25448 -0.254856 -0.255233 -0.255606 -0.255789 -0.255973 -0.256156 -0.256339 -0.256523 -0.256701 -0.256879 -0.257057 -0.257235 -0.257412 -0.257759 -0.258108 -0.258457 -0.258805 -0.259149 -0.259477 -0.259805 -0.260132 -0.260459 -0.260784 -0.261008 -0.261233 -0.261457 -0.261681 -0.261909 -0.261993 -0.262078 -0.262163 -0.262248 -0.262334 -0.262632 -0.262932 -0.263232 -0.26353 -0.263824 -0.264101 -0.264379 -0.264656 -0.264936 -0.265214 -0.265473 -0.265731 -0.265988 -0.266245 -0.2665 -0.266542 -0.266585 -0.266629 -0.266672 -0.266716 -0.266919 -0.267124 -0.267327 -0.267531 -0.267733 -0.267959 -0.268187 -0.268417 -0.268646 -0.268874 -0.269079 -0.269286 -0.269492 -0.269701 -0.269911 -0.270077 -0.270243 -0.270408 -0.270573 -0.270739 -0.270761 -0.270784 -0.270806 -0.270828 -0.27085 -0.271028 -0.271207 -0.271386 -0.271564 -0.271741 -0.271895 -0.272048 -0.272208 -0.272367 -0.272524 -0.272658 -0.272793 -0.272926 -0.273063 -0.273203 -0.273304 -0.273404 -0.273504 -0.273603 -0.273703 -0.273718 -0.273734 -0.27375 -0.273765 -0.273782 -0.273887 -0.273995 -0.274102 -0.274209 -0.274316 -0.274395 -0.274477 -0.274565 -0.274653 -0.27474 -0.274799 -0.27486 -0.274921 -0.274987 -0.275058 -0.275099 -0.275141 -0.275182 -0.275223 -0.275266 -0.275267 -0.275271 -0.275275 -0.27528 -0.275285 -0.275312 -0.27534 -0.275366 -0.275393 -0.275419 -0.275422 -0.275434 -0.275447 -0.27546 -0.275471 -0.275454 -0.275437 -0.275425 -0.275419 -0.275414 -0.275379 -0.275343 -0.275306 -0.27527 -0.275244 -0.275201 -0.275158 -0.275115 -0.275072 -0.275028 -0.275015 -0.275005 -0.274996 -0.274986 -0.274979 -0.27491 -0.274846 -0.274781 -0.274716 -0.274652 -0.274551 -0.27446 -0.274377 -0.274294 -0.274214 -0.274095 -0.273978 -0.273863 -0.273761 -0.273661 -0.273522 -0.273386 -0.27325 -0.273113 -0.272996 -0.272875 -0.272755 -0.272635 -0.272514 -0.272394 -0.272363 -0.272331 -0.272298 -0.272265 -0.27223 -0.27206 -0.271895 -0.271729 -0.271563 -0.271397 -0.271195 -0.271002 -0.270817 -0.270632 -0.270445 -0.270223 -0.269999 -0.269784 -0.269581 -0.269377 -0.269137 -0.268893 -0.268649 -0.26841 -0.268186 -0.267924 -0.267662 -0.267399 -0.267136 -0.266876 -0.266844 -0.266809 -0.266773 -0.266737 -0.2667 -0.266459 -0.26622 -0.265982 -0.265743 -0.265508 -0.265189 -0.264898 -0.264607 -0.264316 -0.264031 -0.263691 -0.263355 -0.263042 -0.26273 -0.262422 -0.26206 -0.261705 -0.26135 -0.261017 -0.260694 -0.260313 -0.259937 -0.25956 -0.259184 -0.258832 -0.258516 -0.258206 -0.257896 -0.257586 -0.257283 -0.257202 -0.25712 -0.257037 -0.256954 -0.256869 -0.256461 -0.256055 -0.25565 -0.255245 -0.254834 -0.254381 -0.253949 -0.253526 -0.253103 -0.252677 -0.252209 -0.251737 -0.251287 -0.250847 -0.250401 -0.249912 -0.249422 -0.248932 -0.248465 -0.248005 -0.247505 -0.247001 -0.246497 -0.245995 -0.245506 -0.245194 -0.24488 -0.244566 -0.244253 -0.243942 -0.24373 -0.243524 -0.243318 -0.243112 -0.242911 -0.242362 -0.241832 -0.241302 -0.240774 -0.240244 -0.239656 -0.239094 -0.23855 -0.238007 -0.237464 -0.236867 -0.236273 -0.235698 -0.235144 -0.234586 -0.233974 -0.233367 -0.232762 -0.232174 -0.231606 -0.230985 -0.230367 -0.22975 -0.229136 -0.228526 -0.228348 -0.228172 -0.227997 -0.227822 -0.227653 -0.227202 -0.226753 -0.226305 -0.225859 -0.225408 -0.224742 -0.224109 -0.223479 -0.222851 -0.222212 -0.221524 -0.220841 -0.220201 -0.219562 -0.218914 -0.218216 -0.217519 -0.216825 -0.21617 -0.215506 -0.214794 -0.214086 -0.21338 -0.212678 -0.211988 -0.211618 -0.211248 -0.210878 -0.210509 -0.210147 -0.209798 -0.209451 -0.209105 -0.208759 -0.20841 -0.207653 -0.206931 -0.206214 -0.205499 -0.204769 -0.203983 -0.203204 -0.202473 -0.201746 -0.200998 -0.200197 -0.199402 -0.198612 -0.197857 -0.197097 -0.196284 -0.195477 -0.194673 -0.193874 -0.193058 -0.192937 -0.192819 -0.192701 -0.192584 -0.192469 -0.191769 -0.191074 -0.190383 -0.189694 -0.188986 -0.188106 -0.187264 -0.186443 -0.185627 -0.184777 -0.183878 -0.182985 -0.182101 -0.18127 -0.180405 -0.179492 -0.178583 -0.177679 -0.176781 -0.175859 -0.175685 -0.175512 -0.175339 -0.175166 -0.174996 -0.174247 -0.173506 -0.172769 -0.172036 -0.171279 -0.170287 -0.169331 -0.168409 -0.167493 -0.166533 -0.16551 -0.164498 -0.163494 -0.162524 -0.161537 -0.160763 -0.159994 -0.159229 -0.158468 -0.157728 -0.157444 -0.15716 -0.156876 -0.156593 -0.156304 -0.155198 -0.15414 -0.153088 -0.152044 -0.150944 -0.14979 -0.148644 -0.147512 -0.146443 -0.145309 -0.144276 -0.143252 -0.142234 -0.141222 -0.140242 -0.140059 -0.139884 -0.13971 -0.139535 -0.139367 -0.138121 -0.13691 -0.135709 -0.134517 -0.133253 -0.131912 -0.130593 -0.129284 -0.128028 -0.126703 -0.125808 -0.124924 -0.124047 -0.123176 -0.122333 -0.121859 -0.121393 -0.120929 -0.120468 -0.119996 -0.118948 -0.117932 -0.116943 -0.115981 -0.115084 -0.114975 -0.114876 -0.114777 -0.11468 -0.114587 -0.114013 -0.113488 -0.112995 -0.112531 -0.112128 -0.112169 -0.112235 -0.112308 -0.112387 -0.1125 -0.112706 -0.112953 -0.113217 -0.113495 -0.113807 -0.114765 -0.115777 -0.116816 -0.117881 -0.119256 -0.119498 -0.119768 -0.12004 -0.120312 -0.120612 -0.122912 -0.125241 -0.127593 -0.129974 -0.132347 -0.134262 -0.136209 -0.138169 -0.14014 -0.142574 -0.14348 -0.144403 -0.145327 -0.146254 -0.147193 -0.15054 -0.153917 -0.157312 -0.160723 -0.164115 -0.167557 -0.171021 -0.1745 -0.177993 -0.181497 -0.182764 -0.184037 -0.185312 -0.186589 -0.188028 -0.190189 -0.192354 -0.194523 -0.196696 -0.198864 -0.202154 -0.205496 -0.208857 -0.212227 -0.215586 -0.218656 -0.221733 -0.224838 -0.228003 -0.231161 -0.233962 -0.236769 -0.239583 -0.242414 -0.24533 -0.247825 -0.250323 -0.252828 -0.255338 -0.257876 -0.258435 -0.258992 -0.25955 -0.260108 -0.260714 -0.262339 -0.263967 -0.265597 -0.26723 -0.268864 -0.270594 -0.272435 -0.274281 -0.276131 -0.277982 -0.279135 -0.280572 -0.282047 -0.283526 -0.285008 -0.28566 -0.2865 -0.287616 -0.288736 -0.289859 -0.290021 -0.290188 -0.290981 -0.291784 -0.292592 -0.29239 -0.292199 -0.292516 -0.29313 -0.293755 -0.293528 -0.293329 -0.29342 -0.294148 -0.294901 -0.295285 -0.295724 -0.296188 -0.29757 -0.299003 -0.301152 -0.30341 -0.305675 -0.308492 -0.311592 -0.317451 -0.323504 -0.329564 -0.335723 -0.342158 -0.354469 -0.367091 -0.37972 -0.392128 -0.404313 -0.42626 -0.448643 -0.471032 -0.4932 -0.514103 -0.54848 -0.58339 -0.618303 -0.653219 -0.685865 -0.733582 -0.781836 -0.83009 -0.878344 -0.924489 -0.983766 -1.0435 -1.10323 -1.16297 -1.22143 -1.28897 -1.35685 -1.42475 -1.49265 -1.56037 -1.63297 -1.70578 -1.77861 -1.85146 -1.92471 -1.96464 -2.0046 -2.04456 -2.08455 -2.11572 -2.15212 -2.18852 -2.22491 -2.2613 -2.29767 -2.36895 -2.44111 -2.51326 -2.5854 -2.6574 -2.71932 -2.78494 -2.85056 -2.91619 -2.98156 -3.03129 -3.08565 -3.14069 -3.19577 -3.25054 -3.28546 -3.32155 -3.35967 -3.39784 -3.43561 -3.45224 -3.46858 -3.48525 -3.502 -3.51843 -3.52354 -3.52872 -3.53166 -3.53417 -3.53676 -3.53717 -3.53761 -3.5358 -3.53287 -3.52996 -3.52903 -3.52825 -3.52668 -3.52455 -3.52258 -3.52291 -3.52323 -3.52359 -3.52398 -3.52435