# vtk DataFile Version 2.0
track0
ASCII
DATASET POLYDATA
POINTS 12105 float
-0.0205 0.001 1e-05
-0.0204941 0.0011 1e-05
-0.0204881 0.00119999 1e-05
-0.0204819 0.00129997 1e-05
-0.0204756 0.00139995 1e-05
-0.0204691 0.0015 1e-05
-0.0204625 0.0016 1e-05
-0.0204557 0.00169999 1e-05
-0.0204486 0.00179996 1e-05
-0.0204414 0.00189992 1e-05
-0.020434 0.002 1e-05
-0.0204264 0.0021 1e-05
-0.0204186 0.00219998 1e-05
-0.0204106 0.00229995 1e-05
-0.0204023 0.0023999 1e-05
-0.0203939 0.0025 1e-05
-0.0203852 0.0026 1e-05
-0.0203762 0.00269998 1e-05
-0.020367 0.00279994 1e-05
-0.0203576 0.00289987 1e-05
-0.0203479 0.003 1e-05
-0.020338 0.0031 1e-05
-0.0203279 0.00319997 1e-05
-0.0203175 0.00329992 1e-05
-0.0203068 0.00339985 1e-05
-0.0202959 0.0035 1e-05
-0.0202938 0.00351873 1e-05
-0.0202917 0.00353747 1e-05
-0.0202896 0.0035562 1e-05
-0.0202874 0.00357493 1e-05
-0.0202854 0.00359286 1e-05
-0.0202761 0.00367429 1e-05
-0.0202666 0.0037557 1e-05
-0.020257 0.00383708 1e-05
-0.0202471 0.00391845 1e-05
-0.0202371 0.004 1e-05
-0.0202246 0.0041 1e-05
-0.0202119 0.00419997 1e-05
-0.0201988 0.0042999 1e-05
-0.0201855 0.0043998 1e-05
-0.0201719 0.0045 1e-05
-0.0201581 0.0046 1e-05
-0.0201439 0.00469996 1e-05
-0.0201295 0.00479989 1e-05
-0.0201149 0.00489977 1e-05
-0.0200999 0.005 1e-05
-0.0200846 0.0051 1e-05
-0.0200691 0.00519996 1e-05
-0.0200533 0.00529987 1e-05
-0.0200373 0.00539974 1e-05
-0.0200223 0.00549099 1e-05
-0.020022 0.00549279 1e-05
-0.0200217 0.00549459 1e-05
-0.0200214 0.0054964 1e-05
-0.0200211 0.0054982 1e-05
-0.0200208 0.0055 1e-05
-0.0200042 0.0056 1e-05
-0.0199872 0.00569995 1e-05
-0.01997 0.00579986 1e-05
-0.0199526 0.00589972 1e-05
-0.0199347 0.006 1e-05
-0.0199166 0.0061 1e-05
-0.0198983 0.00619995 1e-05
-0.0198796 0.00629985 1e-05
-0.0198607 0.00639969 1e-05
-0.0198414 0.0065 1e-05
-0.0198254 0.00658195 1e-05
-0.0198092 0.00666385 1e-05
-0.0197928 0.00674572 1e-05
-0.0197762 0.00682756 1e-05
-0.0197614 0.00690006 1e-05
-0.0197572 0.00692005 1e-05
-0.0197531 0.00694003 1e-05
-0.0197489 0.00696002 1e-05
-0.0197447 0.00698 1e-05
-0.0197405 0.007 1e-05
-0.0197195 0.0071 1e-05
-0.0196982 0.00719994 1e-05
-0.0196766 0.00729982 1e-05
-0.0196548 0.00739963 1e-05
-0.0196325 0.0075 1e-05
-0.0196099 0.0076 1e-05
-0.0195871 0.00769993 1e-05
-0.019564 0.0077998 1e-05
-0.0195406 0.0078996 1e-05
-0.0195168 0.008 1e-05
-0.0195139 0.00801186 1e-05
-0.0195111 0.00802372 1e-05
-0.0195082 0.00803557 1e-05
-0.0195053 0.00804743 1e-05
-0.0195025 0.00805911 1e-05
-0.0194811 0.00814729 1e-05
-0.0194595 0.00823541 1e-05
-0.0194377 0.00832348 1e-05
-0.0194156 0.00841149 1e-05
-0.0193932 0.0085 1e-05
-0.0193676 0.0086 1e-05
-0.0193417 0.00869992 1e-05
-0.0193154 0.00879977 1e-05
-0.0192889 0.00889954 1e-05
-0.0192619 0.009 1e-05
-0.0192587 0.00901187 1e-05
-0.0192554 0.00902374 1e-05
-0.0192522 0.00903561 1e-05
-0.0192489 0.00904748 1e-05
-0.0192457 0.0090592 1e-05
-0.0192216 0.00914736 1e-05
-0.0191972 0.00923545 1e-05
-0.0191725 0.00932348 1e-05
-0.0191477 0.00941145 1e-05
-0.0191224 0.0095 1e-05
-0.0190961 0.00959104 1e-05
-0.0190696 0.009682 1e-05
-0.0190428 0.00977289 1e-05
-0.0190158 0.0098637 1e-05
-0.018991 0.00994601 1e-05
-0.0189878 0.00995681 1e-05
-0.0189845 0.00996761 1e-05
-0.0189812 0.0099784 1e-05
-0.0189779 0.0099892 1e-05
-0.0189746 0.01 1e-05
-0.0189441 0.0101 1e-05
-0.0189133 0.0101999 1e-05
-0.0188821 0.0102997 1e-05
-0.0188507 0.0103994 1e-05
-0.0188186 0.0105 1e-05
-0.0188026 0.0105498 1e-05
-0.0187864 0.0105995 1e-05
-0.0187702 0.0106493 1e-05
-0.018754 0.010699 1e-05
-0.0187384 0.0107463 1e-05
-0.0187216 0.010797 1e-05
-0.0187047 0.0108477 1e-05
-0.0186878 0.0108984 1e-05
-0.0186707 0.0109491 1e-05
-0.0186535 0.011 1e-05
-0.0186204 0.0110976 1e-05
-0.0185869 0.011195 1e-05
-0.0185532 0.0112924 1e-05
-0.0185191 0.0113896 1e-05
-0.0184878 0.0114782 1e-05
-0.0184862 0.0114825 1e-05
-0.0184847 0.0114869 1e-05
-0.0184831 0.0114913 1e-05
-0.0184815 0.0114956 1e-05
-0.01848 0.0115 1e-05
-0.0184442 0.0116 1e-05
-0.0184081 0.0116999 1e-05
-0.0183717 0.0117997 1e-05
-0.0183349 0.0118993 1e-05
-0.0182974 0.012 1e-05
-0.0182858 0.012031 1e-05
-0.0182741 0.0120619 1e-05
-0.0182624 0.0120929 1e-05
-0.0182506 0.0121238 1e-05
-0.0182392 0.0121539 1e-05
-0.0182127 0.0122231 1e-05
-0.0181862 0.0122923 1e-05
-0.0181594 0.0123614 1e-05
-0.0181325 0.0124304 1e-05
-0.0181052 0.0125 1e-05
-0.0180827 0.012557 1e-05
-0.01806 0.012614 1e-05
-0.0180373 0.0126709 1e-05
-0.0180145 0.0127278 1e-05
-0.0179926 0.012782 1e-05
-0.0179749 0.0128256 1e-05
-0.0179571 0.0128691 1e-05
-0.0179393 0.0129127 1e-05
-0.0179214 0.0129562 1e-05
-0.0179033 0.013 1e-05
-0.0178723 0.013075 1e-05
-0.017841 0.0131498 1e-05
-0.0178096 0.0132247 1e-05
-0.0177779 0.0132994 1e-05
-0.017748 0.0133696 1e-05
-0.0177368 0.0133957 1e-05
-0.0177256 0.0134217 1e-05
-0.0177143 0.0134478 1e-05
-0.0177031 0.0134739 1e-05
-0.0176917 0.0135 1e-05
-0.0176545 0.0135858 1e-05
-0.0176169 0.0136715 1e-05
-0.0175791 0.0137571 1e-05
-0.0175411 0.0138426 1e-05
-0.0175053 0.0139223 1e-05
-0.0174983 0.0139379 1e-05
-0.0174913 0.0139534 1e-05
-0.0174843 0.0139689 1e-05
-0.0174772 0.0139844 1e-05
-0.0174702 0.014 1e-05
-0.0174291 0.0140903 1e-05
-0.0173877 0.0141805 1e-05
-0.017346 0.0142706 1e-05
-0.0173041 0.0143605 1e-05
-0.0172647 0.0144443 1e-05
-0.0172594 0.0144555 1e-05
-0.0172541 0.0144666 1e-05
-0.0172488 0.0144777 1e-05
-0.0172435 0.0144889 1e-05
-0.0172382 0.0145 1e-05
-0.0171958 0.0145892 1e-05
-0.017153 0.0146782 1e-05
-0.01711 0.0147671 1e-05
-0.0170667 0.0148559 1e-05
-0.0170259 0.0149389 1e-05
-0.0170199 0.0149511 1e-05
-0.0170138 0.0149633 1e-05
-0.0170078 0.0149756 1e-05
-0.0170017 0.0149878 1e-05
-0.0169956 0.015 1e-05
-0.0169543 0.0150829 1e-05
-0.0169128 0.0151658 1e-05
-0.016871 0.0152485 1e-05
-0.0168289 0.015331 1e-05
-0.0167891 0.0154087 1e-05
-0.0167797 0.015427 1e-05
-0.0167702 0.0154452 1e-05
-0.0167608 0.0154635 1e-05
-0.0167513 0.0154817 1e-05
-0.0167418 0.0155 1e-05
-0.0167043 0.0155721 1e-05
-0.0166666 0.0156441 1e-05
-0.0166287 0.015716 1e-05
-0.0165906 0.0157878 1e-05
-0.0165542 0.0158561 1e-05
-0.0165387 0.0158848 1e-05
-0.0165233 0.0159136 1e-05
-0.0165077 0.0159424 1e-05
-0.0164922 0.0159711 1e-05
-0.0164765 0.016 1e-05
-0.0164455 0.0160572 1e-05
-0.0164143 0.0161143 1e-05
-0.016383 0.0161713 1e-05
-0.0163515 0.0162282 1e-05
-0.0163212 0.016283 1e-05
-0.016297 0.0163264 1e-05
-0.0162728 0.0163698 1e-05
-0.0162484 0.0164131 1e-05
-0.0162241 0.0164564 1e-05
-0.0161994 0.0165 1e-05
-0.0161775 0.0165385 1e-05
-0.0161556 0.0165771 1e-05
-0.0161336 0.0166155 1e-05
-0.0161116 0.016654 1e-05
-0.01609 0.0166914 1e-05
-0.0160544 0.0167532 1e-05
-0.0160187 0.0168148 1e-05
-0.0159828 0.0168763 1e-05
-0.0159468 0.0169378 1e-05
-0.0159101 0.017 1e-05
-0.0159003 0.0170167 1e-05
-0.0158904 0.0170334 1e-05
-0.0158805 0.01705 1e-05
-0.0158706 0.0170667 1e-05
-0.0158607 0.0170832 1e-05
-0.0158153 0.0171594 1e-05
-0.0157696 0.0172356 1e-05
-0.0157236 0.0173116 1e-05
-0.0156775 0.0173875 1e-05
-0.0156333 0.0174597 1e-05
-0.0156284 0.0174678 1e-05
-0.0156234 0.0174758 1e-05
-0.0156184 0.0174839 1e-05
-0.0156134 0.0174919 1e-05
-0.0156085 0.0175 1e-05
-0.0155683 0.017565 1e-05
-0.015528 0.0176299 1e-05
-0.0154875 0.0176947 1e-05
-0.0154469 0.0177594 1e-05
-0.0154077 0.0178215 1e-05
-0.0153851 0.0178572 1e-05
-0.0153624 0.0178929 1e-05
-0.0153396 0.0179285 1e-05
-0.0153168 0.0179641 1e-05
-0.0152938 0.018 1e-05
-0.0152718 0.0180341 1e-05
-0.0152498 0.0180682 1e-05
-0.0152277 0.0181023 1e-05
-0.0152056 0.0181363 1e-05
-0.0151839 0.0181696 1e-05
-0.0151408 0.0182357 1e-05
-0.0150974 0.0183017 1e-05
-0.0150539 0.0183675 1e-05
-0.0150103 0.0184333 1e-05
-0.0149657 0.0185 1e-05
-0.014965 0.0185011 1e-05
-0.0149642 0.0185023 1e-05
-0.0149635 0.0185034 1e-05
-0.0149627 0.0185045 1e-05
-0.0149619 0.0185057 1e-05
-0.0149179 0.0185712 1e-05
-0.0148737 0.0186367 1e-05
-0.0148293 0.0187021 1e-05
-0.0147848 0.0187673 1e-05
-0.0147417 0.01883 1e-05
-0.0147183 0.018864 1e-05
-0.0146948 0.018898 1e-05
-0.0146713 0.0189319 1e-05
-0.0146477 0.0189658 1e-05
-0.0146239 0.019 1e-05
-0.0146038 0.0190288 1e-05
-0.0145836 0.0190575 1e-05
-0.0145634 0.0190862 1e-05
-0.0145432 0.0191149 1e-05
-0.0145233 0.0191431 1e-05
-0.01448 0.0192043 1e-05
-0.0144365 0.0192655 1e-05
-0.0143929 0.0193265 1e-05
-0.0143491 0.0193874 1e-05
-0.0143067 0.0194463 1e-05
-0.0142989 0.019457 1e-05
-0.0142911 0.0194677 1e-05
-0.0142833 0.0194785 1e-05
-0.0142755 0.0194892 1e-05
-0.0142676 0.0195 1e-05
-0.0142324 0.0195483 1e-05
-0.0141972 0.0195965 1e-05
-0.0141618 0.0196447 1e-05
-0.0141264 0.0196927 1e-05
-0.0140917 0.0197395 1e-05
-0.0140531 0.0197916 1e-05
-0.0140143 0.0198436 1e-05
-0.0139754 0.0198956 1e-05
-0.0139364 0.0199474 1e-05
-0.0138967 0.02 1e-05
-0.013893 0.0200048 1e-05
-0.0138894 0.0200095 1e-05
-0.0138858 0.0200143 1e-05
-0.0138822 0.0200191 1e-05
-0.0138786 0.0200238 1e-05
-0.0138363 0.0200795 1e-05
-0.0137939 0.020135 1e-05
-0.0137513 0.0201905 1e-05
-0.0137087 0.0202459 1e-05
-0.0136671 0.0202996 1e-05
-0.013636 0.0203397 1e-05
-0.0136048 0.0203797 1e-05
-0.0135735 0.0204197 1e-05
-0.0135422 0.0204596 1e-05
-0.0135104 0.0205 1e-05
-0.0134998 0.0205134 1e-05
-0.0134892 0.0205269 1e-05
-0.0134785 0.0205403 1e-05
-0.0134679 0.0205537 1e-05
-0.0134573 0.0205671 1e-05
-0.0134157 0.0206195 1e-05
-0.013374 0.0206718 1e-05
-0.0133322 0.0207241 1e-05
-0.0132902 0.0207762 1e-05
-0.0132493 0.020827 1e-05
-0.0132212 0.0208616 1e-05
-0.0131931 0.0208962 1e-05
-0.013165 0.0209307 1e-05
-0.0131368 0.0209652 1e-05
-0.0131083 0.021 1e-05
-0.0130952 0.0210159 1e-05
-0.0130821 0.0210318 1e-05
-0.013069 0.0210477 1e-05
-0.0130559 0.0210636 1e-05
-0.0130429 0.0210794 1e-05
-0.0130019 0.0211289 1e-05
-0.0129609 0.0211783 1e-05
-0.0129197 0.0212277 1e-05
-0.0128785 0.021277 1e-05
-0.0128381 0.021325 1e-05
-0.0128086 0.02136 1e-05
-0.0127791 0.021395 1e-05
-0.0127495 0.0214299 1e-05
-0.0127198 0.0214648 1e-05
-0.0126898 0.0215 1e-05
-0.0126788 0.0215128 1e-05
-0.0126679 0.0215256 1e-05
-0.0126569 0.0215384 1e-05
[...]
POINT_DATA 12105
 FIELD attributes 1
U 3 12105 float
-0.0180714 	-0.307738 	0 -0.0185366 	-0.307711 	0 -0.0190022 	-0.307682 	0 -0.0194676 	-0.307652 	0 -0.0199329 	-0.307621 	0 -0.0204022 	-0.307589 	0 -0.0209908 	-0.307556 	0 -0.021581 	-0.307521 	0 -0.0221682 	-0.307485 	0 -0.0227553 	-0.307447 	0 -0.0233458 	-0.307408 	0 -0.0240213 	-0.307363 	0 -0.0246985 	-0.307316 	0 -0.0253739 	-0.307267 	0 -0.0260469 	-0.307216 	0 -0.0267228 	-0.307163 	0 -0.0274568 	-0.307101 	0 -0.0281918 	-0.307037 	0 -0.0289266 	-0.306972 	0 -0.0296597 	-0.306905 	0 -0.0303933 	-0.306835 	0 -0.0311653 	-0.306757 	0 -0.0319379 	-0.306676 	0 -0.0327104 	-0.306595 	0 -0.0334827 	-0.306512 	0 -0.0342568 	-0.306426 	0 -0.0344056 	-0.306409 	0 -0.0345549 	-0.306391 	0 -0.0347041 	-0.306373 	0 -0.0348535 	-0.306355 	0 -0.0349968 	-0.306338 	0 -0.0356459 	-0.30626 	0 -0.0362953 	-0.306181 	0 -0.0369446 	-0.306101 	0 -0.0375939 	-0.306019 	0 -0.0382451 	-0.305936 	0 -0.0390611 	-0.305828 	0 -0.0398747 	-0.305716 	0 -0.0406875 	-0.305603 	0 -0.0415001 	-0.305488 	0 -0.0423157 	-0.305371 	0 -0.043142 	-0.305247 	0 -0.0439684 	-0.305121 	0 -0.0447944 	-0.304993 	0 -0.0456175 	-0.304862 	0 -0.0464437 	-0.30473 	0 -0.0472776 	-0.30459 	0 -0.0481115 	-0.304448 	0 -0.0489452 	-0.304305 	0 -0.0497786 	-0.30416 	0 -0.0505404 	-0.304026 	0 -0.0505554 	-0.304024 	0 -0.0505705 	-0.304021 	0 -0.0505855 	-0.304018 	0 -0.0506006 	-0.304016 	0 -0.0506157 	-0.304013 	0 -0.0514569 	-0.303858 	0 -0.0522979 	-0.303701 	0 -0.0531386 	-0.303542 	0 -0.0539791 	-0.303381 	0 -0.0548236 	-0.303219 	0 -0.0556728 	-0.303049 	0 -0.056522 	-0.302878 	0 -0.0573699 	-0.302705 	0 -0.058216 	-0.302529 	0 -0.0590665 	-0.302351 	0 -0.0597669 	-0.3022 	0 -0.0604673 	-0.302048 	0 -0.0611675 	-0.301894 	0 -0.0618675 	-0.30174 	0 -0.062488 	-0.301602 	0 -0.0626591 	-0.301563 	0 -0.0628303 	-0.301525 	0 -0.0630015 	-0.301486 	0 -0.0631727 	-0.301448 	0 -0.0633443 	-0.301409 	0 -0.0642072 	-0.30121 	0 -0.0650685 	-0.301009 	0 -0.0659296 	-0.300806 	0 -0.0667903 	-0.300601 	0 -0.0676561 	-0.300393 	0 -0.0685256 	-0.30018 	0 -0.069395 	-0.299965 	0 -0.070264 	-0.299748 	0 -0.0711326 	-0.299529 	0 -0.0720058 	-0.299307 	0 -0.0721096 	-0.29928 	0 -0.0722134 	-0.299253 	0 -0.0723173 	-0.299226 	0 -0.0724211 	-0.299198 	0 -0.0725236 	-0.299171 	0 -0.0732969 	-0.298969 	0 -0.07407 	-0.298765 	0 -0.0748429 	-0.29856 	0 -0.0756154 	-0.298354 	0 -0.0763928 	-0.298145 	0 -0.077278 	-0.297903 	0 -0.078163 	-0.297659 	0 -0.0790476 	-0.297413 	0 -0.0799318 	-0.297166 	0 -0.0808214 	-0.296915 	0 -0.0809272 	-0.296884 	0 -0.0810332 	-0.296854 	0 -0.0811391 	-0.296823 	0 -0.081245 	-0.296792 	0 -0.0813497 	-0.296762 	0 -0.0821374 	-0.296535 	0 -0.0829248 	-0.296306 	0 -0.083712 	-0.296076 	0 -0.0844988 	-0.295844 	0 -0.0852912 	-0.29561 	0 -0.0861126 	-0.295364 	0 -0.0869337 	-0.295116 	0 -0.0877544 	-0.294867 	0 -0.0885747 	-0.294617 	0 -0.0893185 	-0.294389 	0 -0.0894161 	-0.294359 	0 -0.0895138 	-0.294329 	0 -0.0896115 	-0.294298 	0 -0.0897092 	-0.294268 	0 -0.0898071 	-0.294238 	0 -0.0907193 	-0.293954 	0 -0.09163 	-0.293668 	0 -0.0925402 	-0.29338 	0 -0.0934499 	-0.29309 	0 -0.094368 	-0.292795 	0 -0.0948261 	-0.292647 	0 -0.0952843 	-0.292498 	0 -0.0957423 	-0.292349 	0 -0.0962001 	-0.292199 	0 -0.0966362 	-0.292056 	0 -0.0971043 	-0.291902 	0 -0.0975724 	-0.291748 	0 -0.0980404 	-0.291594 	0 -0.0985082 	-0.291439 	0 -0.0989785 	-0.291283 	0 -0.099887 	-0.290979 	0 -0.100795 	-0.290674 	0 -0.101703 	-0.290367 	0 -0.10261 	-0.290059 	0 -0.103436 	-0.289776 	0 -0.103477 	-0.289762 	0 -0.103517 	-0.289749 	0 -0.103558 	-0.289735 	0 -0.103599 	-0.28972 	0 -0.10364 	-0.289706 	0 -0.104582 	-0.289382 	0 -0.105523 	-0.289056 	0 -0.106463 	-0.288727 	0 -0.107402 	-0.288397 	0 -0.108352 	-0.288062 	0 -0.108647 	-0.287957 	0 -0.108942 	-0.287852 	0 -0.109237 	-0.287747 	0 -0.109531 	-0.287642 	0 -0.109818 	-0.287539 	0 -0.110478 	-0.287304 	0 -0.111138 	-0.287067 	0 -0.111797 	-0.28683 	0 -0.112456 	-0.286591 	0 -0.113121 	-0.28635 	0 -0.11367 	-0.28615 	0 -0.114219 	-0.28595 	0 -0.114768 	-0.285749 	0 -0.115317 	-0.285547 	0 -0.115839 	-0.285355 	0 -0.11626 	-0.2852 	0 -0.116682 	-0.285044 	0 -0.117102 	-0.284888 	0 -0.117523 	-0.284732 	0 -0.117947 	-0.284575 	0 -0.118678 	-0.284303 	0 -0.119409 	-0.28403 	0 -0.120139 	-0.283756 	0 -0.120869 	-0.283481 	0 -0.121555 	-0.283222 	0 -0.12181 	-0.283125 	0 -0.122065 	-0.283029 	0 -0.122321 	-0.282932 	0 -0.122576 	-0.282835 	0 -0.122832 	-0.282738 	0 -0.123679 	-0.282416 	0 -0.124526 	-0.282093 	0 -0.125373 	-0.281769 	0 -0.126218 	-0.281443 	0 -0.127008 	-0.281138 	0 -0.127162 	-0.281078 	0 -0.127316 	-0.281019 	0 -0.12747 	-0.280959 	0 -0.127624 	-0.280899 	0 -0.127778 	-0.280839 	0 -0.128682 	-0.28049 	0 -0.129585 	-0.280139 	0 -0.130487 	-0.279787 	0 -0.131388 	-0.279434 	0 -0.132228 	-0.279102 	0 -0.13234 	-0.279058 	0 -0.132452 	-0.279014 	0 -0.132563 	-0.27897 	0 -0.132675 	-0.278926 	0 -0.132787 	-0.278882 	0 -0.133691 	-0.278526 	0 -0.134594 	-0.27817 	0 -0.135496 	-0.277811 	0 -0.136397 	-0.277452 	0 -0.13724 	-0.277114 	0 -0.137364 	-0.277064 	0 -0.137489 	-0.277015 	0 -0.137613 	-0.276965 	0 -0.137737 	-0.276915 	0 -0.137862 	-0.276865 	0 -0.138713 	-0.276525 	0 -0.139564 	-0.276184 	0 -0.140414 	-0.275842 	0 -0.141263 	-0.275498 	0 -0.142062 	-0.275173 	0 -0.14225 	-0.275097 	0 -0.142438 	-0.275021 	0 -0.142626 	-0.274944 	0 -0.142814 	-0.274868 	0 -0.143003 	-0.274791 	0 -0.143753 	-0.274487 	0 -0.144503 	-0.274183 	0 -0.145252 	-0.273877 	0 -0.146 	-0.273571 	0 -0.146711 	-0.273279 	0 -0.147011 	-0.273155 	0 -0.147312 	-0.273032 	0 -0.147612 	-0.272909 	0 -0.147912 	-0.272785 	0 -0.148214 	-0.272661 	0 -0.148816 	-0.272414 	0 -0.149419 	-0.272166 	0 -0.150021 	-0.271918 	0 -0.150622 	-0.27167 	0 -0.151201 	-0.27143 	0 -0.151659 	-0.27124 	0 -0.152117 	-0.27105 	0 -0.152576 	-0.27086 	0 -0.153034 	-0.27067 	0 -0.153495 	-0.270477 	0 -0.153907 	-0.270306 	0 -0.154319 	-0.270136 	0 -0.154731 	-0.269964 	0 -0.155142 	-0.269793 	0 -0.155543 	-0.269626 	0 -0.156204 	-0.269351 	0 -0.156864 	-0.269076 	0 -0.157524 	-0.2688 	0 -0.158183 	-0.268524 	0 -0.15885 	-0.268243 	0 -0.159031 	-0.268168 	0 -0.159212 	-0.268092 	0 -0.159393 	-0.268016 	0 -0.159573 	-0.26794 	0 -0.159753 	-0.267865 	0 -0.16058 	-0.267521 	0 -0.161407 	-0.267175 	0 -0.162232 	-0.266828 	0 -0.163056 	-0.26648 	0 -0.163841 	-0.266146 	0 -0.163929 	-0.266109 	0 -0.164016 	-0.266072 	0 -0.164104 	-0.266035 	0 -0.164191 	-0.265997 	0 -0.164279 	-0.26596 	0 -0.164993 	-0.26566 	0 -0.165707 	-0.265359 	0 -0.16642 	-0.265058 	0 -0.167132 	-0.264755 	0 -0.167816 	-0.264464 	0 -0.168209 	-0.264298 	0 -0.168601 	-0.264131 	0 -0.168994 	-0.263964 	0 -0.169386 	-0.263796 	0 -0.169782 	-0.263627 	0 -0.170162 	-0.263467 	0 -0.170542 	-0.263306 	0 -0.170922 	-0.263144 	0 -0.171302 	-0.262983 	0 -0.171674 	-0.262825 	0 -0.172411 	-0.262513 	0 -0.173147 	-0.2622 	0 -0.173883 	-0.261887 	0 -0.174618 	-0.261573 	0 -0.175364 	-0.261253 	0 -0.175376 	-0.261247 	0 -0.175389 	-0.261242 	0 -0.175402 	-0.261236 	0 -0.175415 	-0.261231 	0 -0.175428 	-0.261226 	0 -0.176168 	-0.260911 	0 -0.176908 	-0.260596 	0 -0.177647 	-0.26028 	0 -0.178385 	-0.259964 	0 -0.179095 	-0.259658 	0 -0.17948 	-0.259493 	0 -0.179864 	-0.259328 	0 -0.180248 	-0.259163 	0 -0.180632 	-0.258998 	0 -0.181019 	-0.258831 	0 -0.181348 	-0.258691 	0 -0.181678 	-0.25855 	0 -0.182007 	-0.258409 	0 -0.182336 	-0.258268 	0 -0.18266 	-0.25813 	0 -0.183362 	-0.257831 	0 -0.184063 	-0.257532 	0 -0.184763 	-0.257232 	0 -0.185463 	-0.256931 	0 -0.186138 	-0.256637 	0 -0.186261 	-0.256584 	0 -0.186384 	-0.256531 	0 -0.186507 	-0.256477 	0 -0.18663 	-0.256424 	0 -0.186754 	-0.256371 	0 -0.187314 	-0.256131 	0 -0.187874 	-0.255891 	0 -0.188434 	-0.255651 	0 -0.188992 	-0.255411 	0 -0.189537 	-0.255176 	0 -0.190142 	-0.254917 	0 -0.190746 	-0.254657 	0 -0.19135 	-0.254397 	0 -0.191953 	-0.254137 	0 -0.192565 	-0.253872 	0 -0.192621 	-0.253848 	0 -0.192677 	-0.253824 	0 -0.192734 	-0.2538 	0 -0.19279 	-0.253776 	0 -0.192846 	-0.253752 	0 -0.193501 	-0.253473 	0 -0.194155 	-0.253192 	0 -0.194807 	-0.252911 	0 -0.195459 	-0.252629 	0 -0.196092 	-0.252354 	0 -0.196563 	-0.252152 	0 -0.197035 	-0.251949 	0 -0.197505 	-0.251745 	0 -0.197976 	-0.251542 	0 -0.198451 	-0.251335 	0 -0.198611 	-0.251267 	0 -0.198772 	-0.251198 	0 -0.198932 	-0.251129 	0 -0.199092 	-0.251061 	0 -0.199252 	-0.250992 	0 -0.199877 	-0.250727 	0 -0.200501 	-0.25046 	0 -0.201124 	-0.250191 	0 -0.201745 	-0.249921 	0 -0.202351 	-0.249657 	0 -0.202763 	-0.24948 	0 -0.203175 	-0.249302 	0 -0.203586 	-0.249124 	0 -0.203997 	-0.248946 	0 -0.204413 	-0.248765 	0 -0.204605 	-0.248683 	0 -0.204797 	-0.248601 	0 -0.204989 	-0.248518 	0 -0.205182 	-0.248436 	0 -0.205373 	-0.248354 	0 -0.20597 	-0.248101 	0 -0.206567 	-0.247845 	0 -0.207162 	-0.247587 	0 -0.207757 	-0.247329 	0 -0.208337 	-0.247076 	0 -0.208759 	-0.246895 	0 -0.20918 	-0.246713 	0 -0.209601 	-0.246531 	0 -0.210022 	-0.246348 	0 -0.210447 	-0.246163 	0 -0.210603 	-0.246097 	0 -0.21076 	-0.24603 	0 -0.210916 	-0.245963 	0 -0.211073 	-0.245895 	0 -0.211229 	-0.245829 	0 -0.211801 	-0.245587 	0 -0.212373 	-0.245341 	0 -0.212943 	-0.245094 	0 -0.213513 	-0.244847 	0 -0.21407 	-0.244605 	0 -0.214566 	-0.244392 	0 -0.215061 	-0.244178 	0 -0.215555 	-0.243964 	0 -0.216049 	-0.24375 	0 -0.21655 	-0.243533 	0 -0.216607 	-0.243509 	0 -0.216665 	-0.243484 	0 -0.216723 	-0.243459 	0 -0.21678 	-0.243435 	0 -0.216838 	-0.24341 	0 -0.217387 	-0.243176 	0 -0.217936 	-0.242941 	0 -0.218483 	-0.242705 	0 -0.21903 	-0.242468 	0 -0.219566 	-0.242236 	0 -0.2201 	-0.242007 	0 -0.220634 	-0.241778 	0 -0.221167 	-0.241548 	0 -0.2217 	-0.241319 	0 -0.222221 	-0.24109 	0 -0.22232 	-0.241046 	0 -0.222419 	-0.241003 	0 -0.222518 	-0.24096 	0 -0.222617 	-0.240917 	0 -0.222716 	-0.240874 	0 -0.223142 	-0.240691 	0 -0.223567 	-0.240509 	0 -0.223992 	-0.240326 	0 -0.224417 	-0.240144 	0 -0.224835 	-0.239963 	0 -0.225349 	-0.239745 	0 -0.225863 	-0.239526 	0 -0.226376 	-0.239306 	0 -0.226887 	-0.239082 	0 -0.227389 	-0.238862 	0 -0.227699 	-0.238727 	0 -0.228009 	-0.238593 	0 -0.228318 	-0.238458 	0 -0.228628 	-0.238323 	0 -0.22894 	-0.238187 	0 -0.22913 	-0.238106 	0 -0.22932 	-0.238025 	0 -0.22951 	-0.237944 	0 -0.2297 	-0.237862 	0 -0.229889 	-0.237782 	0 -0.230384 	-0.237573 	0 -0.230878 	-0.237361 	0 -0.231371 	-0.237147 	0 -0.231863 	-0.236932 	0 -0.232348 	-0.236721 	0 -0.23283 	-0.236514 	0 -0.233311 	-0.236307 	0 -0.233792 	-0.236099 	0 -0.234272 	-0.235892 	0 -0.234744 	-0.235684 	0 -0.234838 	-0.235642 	0 -0.234932 	-0.235601 	0 -0.235026 	-0.23556 	0 -0.23512 	-0.235518 	0 -0.235215 	-0.235477 	0 -0.235595 	-0.235314 	0 -0.235974 	-0.235151 	0 -0.236353 	-0.234988 	0 -0.236732 	-0.234825 	0 -0.237106 	-0.234663 	0 -0.23757 	-0.234466 	0 -0.238035 	-0.234268 	0 -0.238498 	-0.234067 	0 -0.23896 	-0.233864 	0 -0.239416 	-0.233663 	0 -0.239838 	-0.233479 	0 -0.24026 	-0.233296 	0 -0.240682 	-0.233112 	0 -0.241103 	-0.232928 	0 -0.24153 	-0.232742 	0 -0.241557 	-0.23273 	0 -0.241585 	-0.232718 	0 -0.241612 	-0.232706 	0 -0.24164 	-0.232694 	0 -0.241668 	-0.232683 	0 -0.242116 	-0.23249 	0 -0.242564 	-0.232296 	0 -0.243011 	-0.232103 	0 -0.243457 	-0.231908 	0 -0.243898 	-0.231717 	0 -0.244335 	-0.23153 	0 -0.244771 	-0.231342 	0 -0.245207 	-0.231154 	0 -0.245641 	-0.230961 	0 -0.246071 	-0.23077 	0 -0.24643 	-0.230612 	0 -0.246789 	-0.230455 	0 -0.247148 	-0.230297 	0 -0.247507 	-0.230139 	0 -0.24787 	-0.229979 	0 -0.247934 	-0.229951 	0 -0.247998 	-0.229924 	0 -0.248063 	-0.229896 	0 -0.248127 	-0.229868 	0 -0.248192 	-0.22984 	0 -0.248614 	-0.229659 	0 -0.249035 	-0.229475 	0 -0.249456 	-0.229291 	0 -0.249876 	-0.229107 	0 -0.250292 	-0.228924 	0 -0.250703 	-0.228747 	0 -0.251113 	-0.228569 	0 -0.251523 	-0.22839 	0 -0.251933 	-0.228207 	0 -0.252337 	-0.228025 	0 -0.252714 	-0.227859 	0 -0.25309 	-0.227692 	0 -0.253466 	-0.227525 	0 -0.253842 	-0.227358 	0 -0.254222 	-0.227189 	0 -0.254244 	-0.227179 	0 -0.254265 	-0.22717 	0 -0.254287 	-0.22716 	0 -0.254309 	-0.227151 	0 -0.254331 	-0.227141 	0 -0.254729 	-0.226968 	0 -0.255126 	-0.226793 	0 -0.255522 	-0.226618 	0 -0.255919 	-0.226443 	0 -0.256311 	-0.22627 	0 -0.256698 	-0.226101 	0 -0.257085 	-0.225933 	0 -0.257471 	-0.22576 	0 -0.257856 	-0.225586 	0 -0.258238 	-0.225413 	0 -0.258615 	-0.225244 	0 -0.258992 	-0.225076 	0 -0.259368 	-0.224908 	0 -0.259743 	-0.224739 	0 -0.260115 	-0.224569 	0 -0.260205 	-0.224528 	0 -0.260295 	-0.224487 	0 -0.260384 	-0.224446 	0 -0.260474 	-0.224405 	0 -0.260565 	-0.224363 	0 -0.260846 	-0.224238 	0 -0.261129 	-0.224113 	0 -0.26141 	-0.223987 	0 -0.261692 	-0.223862 	0 -0.261972 	-0.223737 	0 -0.262337 	-0.223577 	0 -0.262701 	-0.223415 	0 -0.263066 	-0.223249 	0 -0.263429 	-0.223082 	0 -0.26379 	-0.222918 	0 -0.264145 	-0.222758 	0 -0.2645 	-0.222598 	0 -0.264854 	-0.222438 	0 -0.265208 	-0.222275 	0 -0.265559 	-0.22211 	0 -0.265822 	-0.221988 	0 -0.266085 	-0.221866 	0 -0.266348 	-0.221744 	0 -0.266611 	-0.221622 	0 -0.266876 	-0.221499 	0 -0.266959 	-0.221462 	0 -0.267041 	-0.221424 	0 -0.267124 	-0.221387 	0 -0.267207 	-0.22135 	0 -0.26729 	-0.221313 	0 -0.267634 	-0.221158 	0 -0.267978 	-0.221 	0 -0.268322 	-0.220842 	0 -0.268665 	-0.220684 	0 -0.269006 	-0.220527 	0 -0.26934 	-0.220375 	0 -0.269675 	-0.220223 	0 -0.27001 	-0.220067 	0 -0.270344 	-0.219908 	0 -0.270675 	-0.219751 	0 -0.271001 	-0.219599 	0 -0.271326 	-0.219447 	0 -0.271652 	-0.219294 	0 -0.271976 	-0.219142 	0 -0.272299 	-0.218984 	0 -0.272464 	-0.218905 	0 -0.27263 	-0.218825 	0 -0.272796 	-0.218745 	0 -0.272961 	-0.218665 	0 -0.273128 	-0.218585 	0 -0.273282 	-0.218513 	0 -0.273436 	-0.218442 	0 -0.27359 	-0.21837 	0 -0.273743 	-0.218298 	0 -0.273897 	-0.218227 	0 -0.274213 	-0.218081 	0 -0.274529 	-0.217931 	0 -0.274844 	-0.21778 	0 -0.27516 	-0.217629 	0 -0.275473 	-0.217479 	0 -0.275779 	-0.217334 	0 -0.276086 	-0.217189 	0 -0.276393 	-0.217041 	0 -0.2767 	-0.216889 	0 -0.277005 	-0.216738 	0 -0.277303 	-0.216593 	0 -0.277602 	-0.216447 	0 -0.2779 	-0.216301 	0 -0.278197 	-0.216156 	0 -0.278494 	-0.216005 	0 -0.278652 	-0.215925 	0 -0.27881 	-0.215845 	0 -0.278969 	-0.215766 	0 -0.279127 	-0.215686 	0 -0.279287 	-0.215605 	0 -0.279421 	-0.21554 	0 -0.279555 	-0.215475 	0 -0.27969 	-0.21541 	0 -0.279824 	-0.215344 	0 -0.279959 	-0.215279 	0 -0.280248 	-0.21514 	0 -0.280538 	-0.214995 	0 -0.280828 	-0.21485 	0 -0.281117 	-0.214705 	0 -0.281405 	-0.214562 	0 -0.281685 	-0.214423 	0 -0.281967 	-0.214284 	0 -0.282248 	-0.21414 	0 -0.282529 	-0.213994 	0 -0.28281 	-0.213849 	0 -0.283082 	-0.213709 	0 -0.283356 	-0.21357 	0 -0.283628 	-0.21343 	0 -0.283901 	-0.213288 	0 -0.284174 	-0.213142 	0 -0.284401 	-0.213021 	0 -0.284628 	-0.212901 	0 -0.284855 	-0.21278 	0 -0.285083 	-0.212659 	0 -0.285312 	-0.212537 	0 -0.28535 	-0.212518 	0 -0.285388 	-0.212498 	0 -0.285426 	-0.212478 	0 -0.285464 	-0.212459 	0 -0.285503 	-0.21244 	0 -0.285768 	-0.212302 	0 -0.286034 	-0.212162 	0 -0.286299 	-0.212023 	0 -0.286564 	-0.211884 	0 -0.286828 	-0.211745 	0 -0.287084 	-0.211611 	0 -0.287342 	-0.211475 	0 -0.287599 	-0.211334 	0 -0.287857 	-0.211194 	0 -0.288113 	-0.211054 	0 -0.288362 	-0.210919 	0 -0.288612 	-0.210784 	0 -0.28886 	-0.210648 	0 -0.289111 	-0.210507 	0 -0.28936 	-0.210366 	0 -0.289601 	-0.210229 	0 -0.289843 	-0.210093 	0 -0.290085 	-0.209957 	0 -0.290326 	-0.20982 	0 -0.290568 	-0.20968 	0 -0.290683 	-0.209612 	0 -0.290799 	-0.209544 	0 -0.290915 	-0.209477 	0 -0.29103 	-0.209409 	0 -0.291147 	-0.209341 	0 -0.291269 	-0.209272 	0 -0.291391 	-0.209204 	0 -0.291513 	-0.209136 	0 -0.291635 	-0.209068 	0 -0.291758 	-0.209001 	0 -0.291992 	-0.208869 	0 -0.292227 	-0.208734 	0 -0.292463 	-0.208598 	0 -0.292698 	-0.208462 	0 -0.292932 	-0.208328 	0 -0.293158 	-0.208197 	0 -0.293384 	-0.208067 	0 -0.293613 	-0.20793 	0 -0.293841 	-0.207793 	0 -0.294068 	-0.207657 	0 -0.294287 	-0.207525 	0 -0.294507 	-0.207393 	0 -0.294726 	-0.207261 	0 -0.294947 	-0.207124 	0 -0.295168 	-0.206987 	0 -0.29538 	-0.206854 	0 -0.295593 	-0.206721 	0 -0.295806 	-0.206588 	0 -0.296018 	-0.206454 	0 -0.296231 	-0.206319 	0 -0.29633 	-0.206253 	0 -0.29643 	-0.206188 	0 -0.29653 	-0.206123 	0 -0.29663 	-0.206058 	0 -0.296731 	-0.205994 	0 -0.29684 	-0.205926 	0 -0.29695 	-0.205858 	0 -0.29706 	-0.20579 	0 -0.29717 	-0.205722 	0 -0.297281 	-0.205655 	0 -0.297487 	-0.205527 	0 -0.297694 	-0.205394 	0 -0.297902 	-0.205262 	0 -0.298109 	-0.205129 	0 -0.298316 	-0.204997 	0 -0.298514 	-0.20487 	0 -0.298714 	-0.204741 	0 -0.298915 	-0.204608 	0 -0.299116 	-0.204474 	0 -0.299317 	-0.204341 	0 -0.299509 	-0.204212 	0 -0.299701 	-0.204084 	0 -0.299894 	-0.203955 	0 -0.300089 	-0.20382 	0 -0.300283 	-0.203686 	0 -0.300469 	-0.203556 	0 -0.300655 	-0.203427 	0 -0.300841 	-0.203297 	0 -0.301027 	-0.203167 	0 -0.301216 	-0.203033 	0 -0.301372 	-0.202919 	0 -0.301529 	-0.202805 	0 -0.301687 	-0.202692 	0 -0.301843 	-0.202578 	0 -0.302002 	-0.202464 	0 -0.302025 	-0.202447 	0 -0.302048 	-0.202431 	0 -0.302072 	-0.202415 	0 -0.302095 	-0.202399 	0 -0.30212 	-0.202383 	0 -0.302301 	-0.202256 	0 -0.302482 	-0.202128 	0 -0.302664 	-0.202001 	0 -0.302845 	-0.201873 	0 -0.303027 	-0.201745 	0 -0.303199 	-0.201624 	0 -0.303374 	-0.201497 	0 -0.30355 	-0.20137 	0 -0.303726 	-0.201242 	0 -0.303902 	-0.201115 	0 -0.304068 	-0.200994 	0 -0.304234 	-0.200873 	0 -0.304404 	-0.200748 	0 -0.304574 	-0.200621 	0 -0.304744 	-0.200495 	0 -0.304904 	-0.200375 	0 -0.305065 	-0.200256 	0 -0.305226 	-0.200137 	0 -0.30539 	-0.200014 	0 -0.305555 	-0.19989 	0 -0.30571 	-0.199773 	0 -0.305865 	-0.199657 	0 -0.306021 	-0.199541 	0 -0.306176 	-0.199425 	0 -0.306334 	-0.199306 	0 -0.306441 	-0.199226 	0 -0.306548 	-0.199148 	0 -0.306655 	-0.199068 	0 -0.306762 	-0.198989 	0 -0.30687 	-0.198911 	0 -0.306914 	-0.198879 	0 -0.306959 	-0.198849 	0 -0.307004 	-0.198818 	0 -0.307049 	-0.198787 	0 -0.307095 	-0.198758 	0 -0.307245 	-0.19866 	0 -0.307397 	-0.198561 	0 -0.30755 	-0.198462 	0 -0.307702 	-0.198362 	0 -0.307855 	-0.198265 	0 -0.307996 	-0.198182 	0 -0.308142 	-0.198095 	0 -0.308289 	-0.198006 	0 -0.308436 	-0.197917 	0 -0.308584 	-0.19783 	0 -0.30872 	-0.197762 	0 -0.308858 	-0.197694 	0 -0.308999 	-0.197622 	0 -0.309141 	-0.197548 	0 -0.309284 	-0.197475 	0 -0.309415 	-0.197426 	0 -0.309547 	-0.197379 	0 -0.309679 	-0.197332 	0 -0.309816 	-0.197279 	0 -0.309954 	-0.197226 	0 -0.31008 	-0.197204 	0 -0.310207 	-0.197184 	0 -0.310335 	-0.197163 	0 -0.310462 	-0.197143 	0 -0.310595 	-0.197117 	0 -0.310716 	-0.197131 	0 -0.310839 	-0.197146 	0 -0.310962 	-0.197161 	0 -0.311084 	-0.197176 	0 -0.311208 	-0.197192 	0 -0.311211 	-0.197193 	0 -0.311215 	-0.197196 	0 -0.311219 	-0.197198 	0 -0.311223 	-0.1972 	0 -0.311227 	-0.197202 	0 -0.311347 	-0.197265 	0 -0.311468 	-0.19733 	0 -0.311589 	-0.197394 	0 -0.311709 	-0.197459 	0 -0.311831 	-0.197526 	0 -0.311945 	-0.197658 	0 -0.312065 	-0.197785 	0 -0.312186 	-0.197911 	0 -0.312306 	-0.198037 	0 -0.312427 	-0.198166 	0 -0.312536 	-0.198376 	0 -0.312647 	-0.198586 	0 -0.312763 	-0.198788 	0 -0.312879 	-0.198989 	0 -0.312996 	-0.199194 	0 -0.3131 	-0.199499 	0 -0.313206 	-0.199808 	0 -0.313313 	-0.200112 	0 -0.313425 	-0.200408 	0 -0.313538 	-0.200708 	0 -0.313638 	-0.201131 	0 -0.313739 	-0.201559 	0 -0.31384 	-0.201986 	0 -0.313944 	-0.202406 	0 -0.314054 	-0.202824 	0 -0.314149 	-0.203391 	0 -0.314245 	-0.203963 	0 -0.314342 	-0.204534 	0 -0.314439 	-0.205106 	0 -0.314543 	-0.205676 	0 -0.314605 	-0.206186 	0 -0.314669 	-0.206701 	0 -0.314733 	-0.207217 	0 -0.314797 	-0.207732 	0 -0.314861 	-0.208245 	0 -0.314892 	-0.208475 	0 -0.314923 	-0.20871 	0 -0.314955 	-0.208946 	0 -0.314987 	-0.209182 	0 -0.31502 	-0.209424 	0 -0.31511 	-0.210387 	0 -0.315205 	-0.211349 	0 -0.315301 	-0.21231 	0 -0.315398 	-0.213271 	0 -0.315497 	-0.21425 	0 -0.315578 	-0.215478 	0 -0.315668 	-0.216688 	0 -0.31576 	-0.217891 	0 -0.315853 	-0.219093 	0 -0.31595 	-0.220322 	0 -0.316026 	-0.221833 	0 -0.316105 	-0.223351 	0 -0.316192 	-0.224836 	