# vtk DataFile Version 2.0
track0
ASCII
DATASET POLYDATA
POINTS 12105 float
-0.0205 0.001 1e-05
-0.0204941 0.0011 1e-05
-0.0204881 0.00119999 1e-05
-0.0204819 0.00129997 1e-05
-0.0204756 0.00139995 1e-05
-0.0204691 0.0015 1e-05
-0.0204625 0.0016 1e-05
-0.0204557 0.00169999 1e-05
-0.0204486 0.00179996 1e-05
-0.0204414 0.00189992 1e-05
-0.020434 0.002 1e-05
-0.0204264 0.0021 1e-05
-0.0204186 0.00219998 1e-05
-0.0204106 0.00229995 1e-05
-0.0204023 0.0023999 1e-05
-0.0203939 0.0025 1e-05
-0.0203852 0.0026 1e-05
-0.0203762 0.00269998 1e-05
-0.020367 0.00279994 1e-05
-0.0203576 0.00289987 1e-05
-0.0203479 0.003 1e-05
-0.020338 0.0031 1e-05
-0.0203279 0.00319997 1e-05
-0.0203175 0.00329992 1e-05
-0.0203068 0.00339985 1e-05
-0.0202959 0.0035 1e-05
-0.0202938 0.00351873 1e-05
-0.0202917 0.00353747 1e-05
-0.0202896 0.0035562 1e-05
-0.0202874 0.00357493 1e-05
-0.0202854 0.00359286 1e-05
-0.0202761 0.00367429 1e-05
-0.0202666 0.0037557 1e-05
-0.020257 0.00383708 1e-05
-0.0202471 0.00391845 1e-05
-0.0202371 0.004 1e-05
-0.0202246 0.0041 1e-05
-0.0202119 0.00419997 1e-05
-0.0201988 0.0042999 1e-05
-0.0201855 0.0043998 1e-05
-0.0201719 0.0045 1e-05
-0.0201581 0.0046 1e-05
-0.0201439 0.00469996 1e-05
-0.0201295 0.00479989 1e-05
-0.0201149 0.00489977 1e-05
-0.0200999 0.005 1e-05
-0.0200846 0.0051 1e-05
-0.0200691 0.00519996 1e-05
-0.0200533 0.00529987 1e-05
-0.0200373 0.00539974 1e-05
-0.0200223 0.00549099 1e-05
-0.020022 0.00549279 1e-05
-0.0200217 0.00549459 1e-05
-0.0200214 0.0054964 1e-05
-0.0200211 0.0054982 1e-05
-0.0200208 0.0055 1e-05
-0.0200042 0.0056 1e-05
-0.0199872 0.00569995 1e-05
-0.01997 0.00579986 1e-05
-0.0199526 0.00589972 1e-05
-0.0199347 0.006 1e-05
-0.0199166 0.0061 1e-05
-0.0198983 0.00619995 1e-05
-0.0198796 0.00629985 1e-05
-0.0198607 0.00639969 1e-05
-0.0198414 0.0065 1e-05
-0.0198254 0.00658195 1e-05
-0.0198092 0.00666385 1e-05
-0.0197928 0.00674572 1e-05
-0.0197762 0.00682756 1e-05
-0.0197614 0.00690006 1e-05
-0.0197572 0.00692005 1e-05
-0.0197531 0.00694003 1e-05
-0.0197489 0.00696002 1e-05
-0.0197447 0.00698 1e-05
-0.0197405 0.007 1e-05
-0.0197195 0.0071 1e-05
-0.0196982 0.00719994 1e-05
-0.0196766 0.00729982 1e-05
-0.0196548 0.00739963 1e-05
-0.0196325 0.0075 1e-05
-0.0196099 0.0076 1e-05
-0.0195871 0.00769993 1e-05
-0.019564 0.0077998 1e-05
-0.0195406 0.0078996 1e-05
-0.0195168 0.008 1e-05
-0.0195139 0.00801186 1e-05
-0.0195111 0.00802372 1e-05
-0.0195082 0.00803557 1e-05
-0.0195053 0.00804743 1e-05
-0.0195025 0.00805911 1e-05
-0.0194811 0.00814729 1e-05
-0.0194595 0.00823541 1e-05
-0.0194377 0.00832348 1e-05
-0.0194156 0.00841149 1e-05
-0.0193932 0.0085 1e-05
-0.0193676 0.0086 1e-05
-0.0193417 0.00869992 1e-05
-0.0193154 0.00879977 1e-05
-0.0192889 0.00889954 1e-05
-0.0192619 0.009 1e-05
-0.0192587 0.00901187 1e-05
-0.0192554 0.00902374 1e-05
-0.0192522 0.00903561 1e-05
-0.0192489 0.00904748 1e-05
-0.0192457 0.0090592 1e-05
-0.0192216 0.00914736 1e-05
-0.0191972 0.00923545 1e-05
-0.0191725 0.00932348 1e-05
-0.0191477 0.00941145 1e-05
-0.0191224 0.0095 1e-05
-0.0190961 0.00959104 1e-05
-0.0190696 0.009682 1e-05
-0.0190428 0.00977289 1e-05
-0.0190158 0.0098637 1e-05
-0.018991 0.00994601 1e-05
-0.0189878 0.00995681 1e-05
-0.0189845 0.00996761 1e-05
-0.0189812 0.0099784 1e-05
-0.0189779 0.0099892 1e-05
-0.0189746 0.01 1e-05
-0.0189441 0.0101 1e-05
-0.0189133 0.0101999 1e-05
-0.0188821 0.0102997 1e-05
-0.0188507 0.0103994 1e-05
-0.0188186 0.0105 1e-05
-0.0188026 0.0105498 1e-05
-0.0187864 0.0105995 1e-05
-0.0187702 0.0106493 1e-05
-0.018754 0.010699 1e-05
-0.0187384 0.0107463 1e-05
-0.0187216 0.010797 1e-05
-0.0187047 0.0108477 1e-05
-0.0186878 0.0108984 1e-05
-0.0186707 0.0109491 1e-05
-0.0186535 0.011 1e-05
-0.0186204 0.0110976 1e-05
-0.0185869 0.011195 1e-05
-0.0185532 0.0112924 1e-05
-0.0185191 0.0113896 1e-05
-0.0184878 0.0114782 1e-05
-0.0184862 0.0114825 1e-05
-0.0184847 0.0114869 1e-05
-0.0184831 0.0114913 1e-05
-0.0184815 0.0114956 1e-05
-0.01848 0.0115 1e-05
-0.0184442 0.0116 1e-05
-0.0184081 0.0116999 1e-05
-0.0183717 0.0117997 1e-05
-0.0183349 0.0118993 1e-05
-0.0182974 0.012 1e-05
-0.0182858 0.012031 1e-05
-0.0182741 0.0120619 1e-05
-0.0182624 0.0120929 1e-05
-0.0182506 0.0121238 1e-05
-0.0182392 0.0121539 1e-05
-0.0182127 0.0122231 1e-05
-0.0181862 0.0122923 1e-05
-0.0181594 0.0123614 1e-05
-0.0181325 0.0124304 1e-05
-0.0181052 0.0125 1e-05
-0.0180827 0.012557 1e-05
-0.01806 0.012614 1e-05
-0.0180373 0.0126709 1e-05
-0.0180145 0.0127278 1e-05
-0.0179926 0.012782 1e-05
-0.0179749 0.0128256 1e-05
-0.0179571 0.0128691 1e-05
-0.0179393 0.0129127 1e-05
-0.0179214 0.0129562 1e-05
-0.0179033 0.013 1e-05
-0.0178723 0.013075 1e-05
-0.017841 0.0131498 1e-05
-0.0178096 0.0132247 1e-05
-0.0177779 0.0132994 1e-05
-0.017748 0.0133696 1e-05
-0.0177368 0.0133957 1e-05
-0.0177256 0.0134217 1e-05
-0.0177143 0.0134478 1e-05
-0.0177031 0.0134739 1e-05
-0.0176917 0.0135 1e-05
-0.0176545 0.0135858 1e-05
-0.0176169 0.0136715 1e-05
-0.0175791 0.0137571 1e-05
-0.0175411 0.0138426 1e-05
-0.0175053 0.0139223 1e-05
-0.0174983 0.0139379 1e-05
-0.0174913 0.0139534 1e-05
-0.0174843 0.0139689 1e-05
-0.0174772 0.0139844 1e-05
-0.0174702 0.014 1e-05
-0.0174291 0.0140903 1e-05
-0.0173877 0.0141805 1e-05
-0.017346 0.0142706 1e-05
-0.0173041 0.0143605 1e-05
-0.0172647 0.0144443 1e-05
-0.0172594 0.0144555 1e-05
-0.0172541 0.0144666 1e-05
-0.0172488 0.0144777 1e-05
-0.0172435 0.0144889 1e-05
-0.0172382 0.0145 1e-05
-0.0171958 0.0145892 1e-05
-0.017153 0.0146782 1e-05
-0.01711 0.0147671 1e-05
-0.0170667 0.0148559 1e-05
-0.0170259 0.0149389 1e-05
-0.0170199 0.0149511 1e-05
-0.0170138 0.0149633 1e-05
-0.0170078 0.0149756 1e-05
-0.0170017 0.0149878 1e-05
-0.0169956 0.015 1e-05
-0.0169543 0.0150829 1e-05
-0.0169128 0.0151658 1e-05
-0.016871 0.0152485 1e-05
-0.0168289 0.015331 1e-05
-0.0167891 0.0154087 1e-05
-0.0167797 0.015427 1e-05
-0.0167702 0.0154452 1e-05
-0.0167608 0.0154635 1e-05
-0.0167513 0.0154817 1e-05
-0.0167418 0.0155 1e-05
-0.0167043 0.0155721 1e-05
-0.0166666 0.0156441 1e-05
-0.0166287 0.015716 1e-05
-0.0165906 0.0157878 1e-05
-0.0165542 0.0158561 1e-05
-0.0165387 0.0158848 1e-05
-0.0165233 0.0159136 1e-05
-0.0165077 0.0159424 1e-05
-0.0164922 0.0159711 1e-05
-0.0164765 0.016 1e-05
-0.0164455 0.0160572 1e-05
-0.0164143 0.0161143 1e-05
-0.016383 0.0161713 1e-05
-0.0163515 0.0162282 1e-05
-0.0163212 0.016283 1e-05
-0.016297 0.0163264 1e-05
-0.0162728 0.0163698 1e-05
-0.0162484 0.0164131 1e-05
-0.0162241 0.0164564 1e-05
-0.0161994 0.0165 1e-05
-0.0161775 0.0165385 1e-05
-0.0161556 0.0165771 1e-05
-0.0161336 0.0166155 1e-05
-0.0161116 0.016654 1e-05
-0.01609 0.0166914 1e-05
-0.0160544 0.0167532 1e-05
-0.0160187 0.0168148 1e-05
-0.0159828 0.0168763 1e-05
-0.0159468 0.0169378 1e-05
-0.0159101 0.017 1e-05
-0.0159003 0.0170167 1e-05
-0.0158904 0.0170334 1e-05
-0.0158805 0.01705 1e-05
-0.0158706 0.0170667 1e-05
-0.0158607 0.0170832 1e-05
-0.0158153 0.0171594 1e-05
-0.0157696 0.0172356 1e-05
-0.0157236 0.0173116 1e-05
-0.0156775 0.0173875 1e-05
-0.0156333 0.0174597 1e-05
-0.0156284 0.0174678 1e-05
-0.0156234 0.0174758 1e-05
-0.0156184 0.0174839 1e-05
-0.0156134 0.0174919 1e-05
-0.0156085 0.0175 1e-05
-0.0155683 0.017565 1e-05
-0.015528 0.0176299 1e-05
-0.0154875 0.0176947 1e-05
-0.0154469 0.0177594 1e-05
-0.0154077 0.0178215 1e-05
-0.0153851 0.0178572 1e-05
-0.0153624 0.0178929 1e-05
-0.0153396 0.0179285 1e-05
-0.0153168 0.0179641 1e-05
-0.0152938 0.018 1e-05
-0.0152718 0.0180341 1e-05
-0.0152498 0.0180682 1e-05
-0.0152277 0.0181023 1e-05
-0.0152056 0.0181363 1e-05
-0.0151839 0.0181696 1e-05
-0.0151408 0.0182357 1e-05
-0.0150974 0.0183017 1e-05
-0.0150539 0.0183675 1e-05
-0.0150103 0.0184333 1e-05
-0.0149657 0.0185 1e-05
-0.014965 0.0185011 1e-05
-0.0149642 0.0185023 1e-05
-0.0149635 0.0185034 1e-05
-0.0149627 0.0185045 1e-05
-0.0149619 0.0185057 1e-05
-0.0149179 0.0185712 1e-05
-0.0148737 0.0186367 1e-05
-0.0148293 0.0187021 1e-05
-0.0147848 0.0187673 1e-05
-0.0147417 0.01883 1e-05
-0.0147183 0.018864 1e-05
-0.0146948 0.018898 1e-05
-0.0146713 0.0189319 1e-05
-0.0146477 0.0189658 1e-05
-0.0146239 0.019 1e-05
-0.0146038 0.0190288 1e-05
-0.0145836 0.0190575 1e-05
-0.0145634 0.0190862 1e-05
-0.0145432 0.0191149 1e-05
-0.0145233 0.0191431 1e-05
-0.01448 0.0192043 1e-05
-0.0144365 0.0192655 1e-05
-0.0143929 0.0193265 1e-05
-0.0143491 0.0193874 1e-05
-0.0143067 0.0194463 1e-05
-0.0142989 0.019457 1e-05
-0.0142911 0.0194677 1e-05
-0.0142833 0.0194785 1e-05
-0.0142755 0.0194892 1e-05
-0.0142676 0.0195 1e-05
-0.0142324 0.0195483 1e-05
-0.0141972 0.0195965 1e-05
-0.0141618 0.0196447 1e-05
-0.0141264 0.0196927 1e-05
-0.0140917 0.0197395 1e-05
-0.0140531 0.0197916 1e-05
-0.0140143 0.0198436 1e-05
-0.0139754 0.0198956 1e-05
-0.0139364 0.0199474 1e-05
-0.0138967 0.02 1e-05
-0.013893 0.0200048 1e-05
-0.0138894 0.0200095 1e-05
-0.0138858 0.0200143 1e-05
-0.0138822 0.0200191 1e-05
-0.0138786 0.0200238 1e-05
-0.0138363 0.0200795 1e-05
-0.0137939 0.020135 1e-05
-0.0137513 0.0201905 1e-05
-0.0137087 0.0202459 1e-05
-0.0136671 0.0202996 1e-05
-0.013636 0.0203397 1e-05
-0.0136048 0.0203797 1e-05
-0.0135735 0.0204197 1e-05
-0.0135422 0.0204596 1e-05
-0.0135104 0.0205 1e-05
-0.0134998 0.0205134 1e-05
-0.0134892 0.0205269 1e-05
-0.0134785 0.0205403 1e-05
-0.0134679 0.0205537 1e-05
-0.0134573 0.0205671 1e-05
-0.0134157 0.0206195 1e-05
-0.013374 0.0206718 1e-05
-0.0133322 0.0207241 1e-05
-0.0132902 0.0207762 1e-05
-0.0132493 0.020827 1e-05
-0.0132212 0.0208616 1e-05
-0.0131931 0.0208962 1e-05
-0.013165 0.0209307 1e-05
-0.0131368 0.0209652 1e-05
-0.0131083 0.021 1e-05
-0.0130952 0.0210159 1e-05
-0.0130821 0.0210318 1e-05
-0.013069 0.0210477 1e-05
-0.0130559 0.0210636 1e-05
-0.0130429 0.0210794 1e-05
-0.0130019 0.0211289 1e-05
-0.0129609 0.0211783 1e-05
-0.0129197 0.0212277 1e-05
-0.0128785 0.021277 1e-05
-0.0128381 0.021325 1e-05
-0.0128086 0.02136 1e-05
-0.0127791 0.021395 1e-05
-0.0127495 0.0214299 1e-05
-0.0127198 0.0214648 1e-05
-0.0126898 0.0215 1e-05
-0.0126788 0.0215128 1e-05
-0.0126679 0.0215256 1e-05
-0.0126569 0.0215384 1e-05
[...]
POINT_DATA 12105
 FIELD attributes 2
p 1 12105 float
-0.0108573 -0.0119517 -0.0130464 -0.0141409 -0.0152352 -0.0163331 -0.0174558 -0.0185766 -0.0196961 -0.0208155 -0.0219349 -0.0230149 -0.0240939 -0.0251723 -0.0262498 -0.0273282 -0.0283903 -0.029452 -0.0305136 -0.0315745 -0.0326365 -0.0336902 -0.0347432 -0.0357961 -0.0368488 -0.0379032 -0.0380989 -0.0382942 -0.0384896 -0.0386848 -0.0388715 -0.0397207 -0.0405697 -0.0414185 -0.0422672 -0.0431178 -0.0441494 -0.04518 -0.0462102 -0.0472401 -0.048273 -0.049292 -0.0503107 -0.0513291 -0.0523467 -0.0533679 -0.0543755 -0.0553826 -0.0563894 -0.0573958 -0.0583151 -0.0583333 -0.0583516 -0.0583698 -0.0583879 -0.0584059 -0.0594017 -0.0603968 -0.0613915 -0.0623858 -0.063384 -0.0643691 -0.0653531 -0.0663367 -0.0673199 -0.0683071 -0.0691052 -0.0699026 -0.0706996 -0.0714964 -0.0722019 -0.0723964 -0.0725908 -0.0727852 -0.0729796 -0.0731742 -0.0741361 -0.0750973 -0.0760581 -0.0770184 -0.0779838 -0.078935 -0.0798856 -0.0808356 -0.0817851 -0.0827405 -0.0828523 -0.082964 -0.0830756 -0.0831872 -0.083297 -0.0841263 -0.0849543 -0.085782 -0.0866091 -0.0874403 -0.0883705 -0.0892994 -0.0902277 -0.0911554 -0.0920893 -0.0921992 -0.0923086 -0.0924179 -0.0925271 -0.0926344 -0.0934442 -0.0942533 -0.0950618 -0.0958697 -0.0966828 -0.0975105 -0.0983375 -0.0991638 -0.0999895 -0.100738 -0.100836 -0.100934 -0.101032 -0.10113 -0.101227 -0.102126 -0.103023 -0.103919 -0.104815 -0.105717 -0.106161 -0.106604 -0.107046 -0.107489 -0.107909 -0.108359 -0.108809 -0.109258 -0.109707 -0.110159 -0.111017 -0.111874 -0.112731 -0.113586 -0.114365 -0.114403 -0.114442 -0.11448 -0.114518 -0.114556 -0.115425 -0.116293 -0.11716 -0.118026 -0.118901 -0.119169 -0.119436 -0.119703 -0.119971 -0.12023 -0.120824 -0.121418 -0.122011 -0.122604 -0.123201 -0.123688 -0.124174 -0.12466 -0.125145 -0.125607 -0.125978 -0.126347 -0.126716 -0.127085 -0.127455 -0.128089 -0.128721 -0.129352 -0.129982 -0.130574 -0.130793 -0.131011 -0.131229 -0.131447 -0.131666 -0.132382 -0.133097 -0.133811 -0.134523 -0.135188 -0.135317 -0.135446 -0.135574 -0.135702 -0.13583 -0.136576 -0.13732 -0.138063 -0.138805 -0.139495 -0.139586 -0.139677 -0.139768 -0.139858 -0.13995 -0.140677 -0.141404 -0.142128 -0.142852 -0.143528 -0.143627 -0.143725 -0.143824 -0.143922 -0.14402 -0.14469 -0.145358 -0.146025 -0.146691 -0.147316 -0.147462 -0.147607 -0.147753 -0.147898 -0.148044 -0.14862 -0.149194 -0.149767 -0.15034 -0.150883 -0.15111 -0.151337 -0.151563 -0.151789 -0.152016 -0.152467 -0.152918 -0.153367 -0.153816 -0.154248 -0.154585 -0.154923 -0.15526 -0.155596 -0.155936 -0.156236 -0.156537 -0.156837 -0.157136 -0.157428 -0.157903 -0.158377 -0.15885 -0.159321 -0.159798 -0.159926 -0.160055 -0.160183 -0.160312 -0.160439 -0.161018 -0.161597 -0.162174 -0.162749 -0.163297 -0.163357 -0.163417 -0.163477 -0.163537 -0.163597 -0.164086 -0.164572 -0.165058 -0.165542 -0.166005 -0.166268 -0.16653 -0.166792 -0.167054 -0.167317 -0.167569 -0.167821 -0.168073 -0.168324 -0.168571 -0.16905 -0.169528 -0.170005 -0.17048 -0.170962 -0.17097 -0.170979 -0.170987 -0.170995 -0.171003 -0.171472 -0.17194 -0.172407 -0.172871 -0.173318 -0.173555 -0.173792 -0.174028 -0.174263 -0.174499 -0.174701 -0.174903 -0.175104 -0.175305 -0.175502 -0.175921 -0.17634 -0.176757 -0.177173 -0.177575 -0.177646 -0.177718 -0.177789 -0.177861 -0.177932 -0.178258 -0.178581 -0.178903 -0.179225 -0.179536 -0.179876 -0.180214 -0.180552 -0.180888 -0.181228 -0.181258 -0.181289 -0.18132 -0.181352 -0.181384 -0.181738 -0.182091 -0.182443 -0.182794 -0.183134 -0.183378 -0.183623 -0.183868 -0.184112 -0.184359 -0.184442 -0.184525 -0.184608 -0.184691 -0.184773 -0.185086 -0.185397 -0.185707 -0.186015 -0.186314 -0.186511 -0.186707 -0.186903 -0.187099 -0.187295 -0.187385 -0.187477 -0.187568 -0.187659 -0.187751 -0.188021 -0.188292 -0.188562 -0.18883 -0.189092 -0.189272 -0.189454 -0.189634 -0.189814 -0.189997 -0.190065 -0.190132 -0.190199 -0.190266 -0.190332 -0.190565 -0.190797 -0.191027 -0.191257 -0.191478 -0.191667 -0.191854 -0.192041 -0.192226 -0.192413 -0.192433 -0.192454 -0.192476 -0.192497 -0.192521 -0.192714 -0.192907 -0.193099 -0.19329 -0.193477 -0.193647 -0.193818 -0.193988 -0.194158 -0.194327 -0.194355 -0.194384 -0.194412 -0.194441 -0.19447 -0.194598 -0.194723 -0.194847 -0.19497 -0.195088 -0.195223 -0.195355 -0.195488 -0.195621 -0.195751 -0.195824 -0.195894 -0.195963 -0.196032 -0.196099 -0.196141 -0.196184 -0.196226 -0.196269 -0.196311 -0.196403 -0.196499 -0.196595 -0.19669 -0.196786 -0.196858 -0.196931 -0.197003 -0.197073 -0.197145 -0.197153 -0.197164 -0.197175 -0.197186 -0.1972 -0.197247 -0.197293 -0.197339 -0.197383 -0.197427 -0.197464 -0.197498 -0.197533 -0.19757 -0.197601 -0.197617 -0.19763 -0.197643 -0.197656 -0.197666 -0.197666 -0.197665 -0.197666 -0.197667 -0.197671 -0.197668 -0.197665 -0.197662 -0.197658 -0.197654 -0.197624 -0.197596 -0.197569 -0.197546 -0.197527 -0.197486 -0.197446 -0.197406 -0.197364 -0.197323 -0.19732 -0.197313 -0.197306 -0.197299 -0.197288 -0.197226 -0.197164 -0.197102 -0.197039 -0.196975 -0.19689 -0.196801 -0.196713 -0.19663 -0.196543 -0.196443 -0.196341 -0.196239 -0.196137 -0.196031 -0.196024 -0.196017 -0.19601 -0.196004 -0.196002 -0.195876 -0.19575 -0.195624 -0.195497 -0.19537 -0.195214 -0.19506 -0.194912 -0.194767 -0.194627 -0.194453 -0.194279 -0.194104 -0.193928 -0.193759 -0.193709 -0.193662 -0.193615 -0.193568 -0.193525 -0.193383 -0.193241 -0.193098 -0.192955 -0.192813 -0.192598 -0.192383 -0.192174 -0.191964 -0.191751 -0.191514 -0.191276 -0.191037 -0.190804 -0.190578 -0.190386 -0.190189 -0.189992 -0.189794 -0.18959 -0.189529 -0.189468 -0.189407 -0.189346 -0.189285 -0.189 -0.188725 -0.18845 -0.188174 -0.187904 -0.187595 -0.187284 -0.186984 -0.186687 -0.186391 -0.18606 -0.185732 -0.185404 -0.185075 -0.184767 -0.184586 -0.184404 -0.184222 -0.184039 -0.183854 -0.183694 -0.183529 -0.183364 -0.183198 -0.183029 -0.182651 -0.182289 -0.181926 -0.181562 -0.181202 -0.180806 -0.180404 -0.180011 -0.179626 -0.17924 -0.17882 -0.178402 -0.177984 -0.177564 -0.177166 -0.176931 -0.176692 -0.176452 -0.176213 -0.175967 -0.175771 -0.175571 -0.175372 -0.175173 -0.174971 -0.174497 -0.174041 -0.173586 -0.173129 -0.172679 -0.172185 -0.171686 -0.171204 -0.170727 -0.170249 -0.169731 -0.169216 -0.168701 -0.168191 -0.167705 -0.167251 -0.166792 -0.166333 -0.165874 -0.165405 -0.165333 -0.165259 -0.165184 -0.165109 -0.16503 -0.164471 -0.163922 -0.163373 -0.162823 -0.162281 -0.16169 -0.161105 -0.160535 -0.159965 -0.159393 -0.158777 -0.158165 -0.157554 -0.156969 -0.156392 -0.155764 -0.155133 -0.154501 -0.153869 -0.153253 -0.152928 -0.15261 -0.152292 -0.151973 -0.15166 -0.15133 -0.151003 -0.150675 -0.150347 -0.150023 -0.149344 -0.148677 -0.148009 -0.147341 -0.146668 -0.145956 -0.145247 -0.144566 -0.143885 -0.143209 -0.142488 -0.141756 -0.141024 -0.140317 -0.139609 -0.138866 -0.138124 -0.137381 -0.136638 -0.135918 -0.13556 -0.135191 -0.134822 -0.134453 -0.134072 -0.133679 -0.133283 -0.132887 -0.13249 -0.132091 -0.131283 -0.130506 -0.129729 -0.128951 -0.128187 -0.127356 -0.126529 -0.12573 -0.124931 -0.124132 -0.123276 -0.122431 -0.121589 -0.120781 -0.119986 -0.119125 -0.11826 -0.117394 -0.116528 -0.115697 -0.114922 -0.114158 -0.113393 -0.112628 -0.111869 -0.111757 -0.111644 -0.111533 -0.111422 -0.111315 -0.110434 -0.109546 -0.108658 -0.107769 -0.106871 -0.10592 -0.105004 -0.104096 -0.103189 -0.102287 -0.101342 -0.100386 -0.0994596 -0.0985434 -0.0976184 -0.0966356 -0.0956554 -0.0946748 -0.0937238 -0.0927906 -0.0918214 -0.090842 -0.0898624 -0.0888825 -0.0879248 -0.0872077 -0.0864928 -0.0857777 -0.0850625 -0.0843457 -0.0840501 -0.0837616 -0.0834734 -0.0831852 -0.0829051 -0.0818871 -0.0808789 -0.0798704 -0.0788617 -0.0778527 -0.0767693 -0.0757252 -0.0746924 -0.0736594 -0.0726339 -0.0715542 -0.0704708 -0.069424 -0.0683863 -0.0673473 -0.0662433 -0.0651421 -0.0640406 -0.062979 -0.0619287 -0.060824 -0.0597146 -0.058605 -0.0574954 -0.0564264 -0.0552999 -0.0541747 -0.0530493 -0.0519239 -0.0508022 -0.0507668 -0.0507288 -0.0506908 -0.0506528 -0.0506147 -0.0495152 -0.0484117 -0.0473081 -0.0462046 -0.0450972 -0.0438957 -0.0427412 -0.0415868 -0.0404325 -0.0392805 -0.0380679 -0.0368646 -0.0356993 -0.0345342 -0.0333636 -0.0321312 -0.0309024 -0.0296925 -0.028515 -0.0273371 -0.0261026 -0.0248657 -0.0236292 -0.0224177 -0.0212234 -0.019972 -0.0187246 -0.0174779 -0.0162319 -0.0150113 -0.0141439 -0.0132741 -0.0124047 -0.0115357 -0.0106781 -0.0102882 -0.00989182 -0.00949512 -0.0090985 -0.00869332 -0.00739791 -0.00611731 -0.00483781 -0.00355942 -0.0022637 -0.000925997 0.00037301 0.00166095 0.00294751 0.00426242 0.00561696 0.00697136 0.00827519 0.0095719 0.0108968 0.0122619 0.013633 0.0150018 0.0163175 0.0176718 0.0190601 0.0204475 0.0218321 0.0232137 0.0245884 0.0259047 0.0272269 0.028546 0.0298621 0.0311094 0.031229 0.0313484 0.0314679 0.0315881 0.031713 0.0331736 0.0346218 0.0360662 0.0375066 0.0390067 0.0405373 0.0420225 0.0434908 0.0449547 0.0464988 0.0480314 0.0495544 0.0510403 0.0524975 0.0540364 0.0555227 0.0570075 0.0584865 0.0599479 0.0614683 0.0627285 0.0639781 0.0652231 0.0664636 0.0676219 0.0678085 0.0679943 0.0681786 0.0683628 0.068545 0.0699114 0.0712701 0.0726236 0.0739721 0.0754361 0.0770435 0.0786434 0.0801905 0.0817308 0.0834135 0.0855623 0.0877238 0.0898724 0.0919864 0.0942645 0.0959735 0.0976719 0.0993627 0.101046 0.102664 0.103489 0.104309 0.105127 0.105944 0.106781 0.108591 0.110323 0.112045 0.113758 0.115668 0.117369 0.119081 0.120794 0.122507 0.124147 0.125012 0.125887 0.126763 0.127639 0.128583 0.130942 0.133311 0.135677 0.13804 0.140309 0.141342 0.142387 0.143432 0.144477 0.145604 0.148219 0.15084 0.153456 0.156066 0.15861 0.160401 0.162202 0.164001 0.165797 0.167762 0.169857 0.171948 0.174036 0.176121 0.178172 0.181338 0.184497 0.187651 0.1908 0.194369 0.195199 0.196027 0.196856 0.197684 0.198507 0.202671 0.206828 0.210958 0.215069 0.219098 0.220354 0.221608 0.222861 0.224114 0.225424 0.228411 0.231399 0.234384 0.237368 0.240322 0.244708 0.249092 0.253473 0.257851 0.262572 0.262652 0.262733 0.262813 0.262894 0.262974 0.267505 0.272035 0.276562 0.281085 0.285559 0.290397 0.295235 0.300069 0.304899 0.309667 0.309898 0.310131 0.310365 0.310599 0.310834 0.315556 0.320274 0.324988 0.329698 0.334365 0.339456 0.344541 0.349621 0.354652 0.359609 0.362457 0.3653 0.36814 0.370979 0.374194 0.376308 0.378417 0.380526 0.382634 0.384732 0.389637 0.394479 0.399313 0.40414 0.408921 0.413438 0.417934 0.422423 0.426877 0.431284 0.43518 0.439046 0.442905 0.446756 0.450565 0.451577 0.452562 0.453546 0.454529 0.455623 0.457608 0.45956 0.46151 0.463456 0.465365 0.467208 0.469071 0.470927 0.472777 0.474579 0.475079 0.475607 0.476204 0.476797 0.477343 0.476452 0.475512 0.474767 0.474026 0.473239 0.471037 0.468792 0.466696 0.464681 0.462627 0.459395 0.456128 0.452963 0.449903 0.44681 0.443076 0.439326 0.435615 0.43195 0.428268 0.424835 0.421405 0.417891 0.414303 0.410718 0.408594 0.406498 0.40408 0.401503 0.398953 0.39906 0.399201 0.39873 0.39815 0.397603 0.400275 0.402914 0.404966 0.407017 0.409074 0.414092 0.419094 0.424189 0.429283 0.434325 0.442432 0.451428 0.461274 0.47112 0.480892 0.494224 0.510837 0.52831 0.545788 0.563156 0.577758 0.597667 0.617588 0.637522 0.656945 0.646386 0.637826 0.629255 0.620672 0.610392 0.545646 0.479784 0.413857 0.347865 0.26323 0.256294 0.250221 0.244146 0.238067 0.23128 0.173786 0.117254 0.0610987 0.00490013 -0.0496243 -0.0709722 -0.0925428 -0.114143 -0.135773 -0.158583 -0.169907 -0.180884 -0.191868 -0.20286 -0.214143